 Entering Gaussian System, Link 0=g09
 Input=r.com
 Output=r.log
 Initial command:
 /home/student/g09/l1.exe /home/student/badal/Gau-32423.inp -scrdir=/home/student/badal/
 Entering Link 1 = /home/student/g09/l1.exe PID=     32425.
  
 Copyright (c) 1988,1990,1992,1993,1995,1998,2003,2009,2011,
            Gaussian, Inc.  All Rights Reserved.
  
 This is part of the Gaussian(R) 09 program.  It is based on
 the Gaussian(R) 03 system (copyright 2003, Gaussian, Inc.),
 the Gaussian(R) 98 system (copyright 1998, Gaussian, Inc.),
 the Gaussian(R) 94 system (copyright 1995, Gaussian, Inc.),
 the Gaussian 92(TM) system (copyright 1992, Gaussian, Inc.),
 the Gaussian 90(TM) system (copyright 1990, Gaussian, Inc.),
 the Gaussian 88(TM) system (copyright 1988, Gaussian, Inc.),
 the Gaussian 86(TM) system (copyright 1986, Carnegie Mellon
 University), and the Gaussian 82(TM) system (copyright 1983,
 Carnegie Mellon University). Gaussian is a federally registered
 trademark of Gaussian, Inc.
  
 This software contains proprietary and confidential information,
 including trade secrets, belonging to Gaussian, Inc.
  
 This software is provided under written license and may be
 used, copied, transmitted, or stored only in accord with that
 written license.
  
 The following legend is applicable only to US Government
 contracts under FAR:
  
                    RESTRICTED RIGHTS LEGEND
  
 Use, reproduction and disclosure by the US Government is
 subject to restrictions as set forth in subparagraphs (a)
 and (c) of the Commercial Computer Software - Restricted
 Rights clause in FAR 52.227-19.
  
 Gaussian, Inc.
 340 Quinnipiac St., Bldg. 40, Wallingford CT 06492
  
  
 ---------------------------------------------------------------
 Warning -- This program may not be used in any manner that
 competes with the business of Gaussian, Inc. or will provide
 assistance to any competitor of Gaussian, Inc.  The licensee
 of this program is prohibited from giving any competitor of
 Gaussian, Inc. access to this program.  By using this program,
 the user acknowledges that Gaussian, Inc. is engaged in the
 business of creating and licensing software in the field of
 computational chemistry and represents and warrants to the
 licensee that it is not a competitor of Gaussian, Inc. and that
 it will not use this program in any manner prohibited above.
 ---------------------------------------------------------------
  

 Cite this work as:
 Gaussian 09, Revision C.01,
 M. J. Frisch, G. W. Trucks, H. B. Schlegel, G. E. Scuseria, 
 M. A. Robb, J. R. Cheeseman, G. Scalmani, V. Barone, B. Mennucci, 
 G. A. Petersson, H. Nakatsuji, M. Caricato, X. Li, H. P. Hratchian, 
 A. F. Izmaylov, J. Bloino, G. Zheng, J. L. Sonnenberg, M. Hada, 
 M. Ehara, K. Toyota, R. Fukuda, J. Hasegawa, M. Ishida, T. Nakajima, 
 Y. Honda, O. Kitao, H. Nakai, T. Vreven, J. A. Montgomery, Jr., 
 J. E. Peralta, F. Ogliaro, M. Bearpark, J. J. Heyd, E. Brothers, 
 K. N. Kudin, V. N. Staroverov, T. Keith, R. Kobayashi, J. Normand, 
 K. Raghavachari, A. Rendell, J. C. Burant, S. S. Iyengar, J. Tomasi, 
 M. Cossi, N. Rega, J. M. Millam, M. Klene, J. E. Knox, J. B. Cross, 
 V. Bakken, C. Adamo, J. Jaramillo, R. Gomperts, R. E. Stratmann, 
 O. Yazyev, A. J. Austin, R. Cammi, C. Pomelli, J. W. Ochterski, 
 R. L. Martin, K. Morokuma, V. G. Zakrzewski, G. A. Voth, 
 P. Salvador, J. J. Dannenberg, S. Dapprich, A. D. Daniels, 
 O. Farkas, J. B. Foresman, J. V. Ortiz, J. Cioslowski, 
 and D. J. Fox, Gaussian, Inc., Wallingford CT, 2010.
 
 ******************************************
 Gaussian 09:  EM64L-G09RevC.01 23-Sep-2011
                23-Feb-2021 
 ******************************************
 %nprocshared=4
 Will use up to    4 processors via shared memory.
 %chk=r.chk
 -----------------------------------------
 # opt freq b3lyp/6-31g* geom=connectivity
 -----------------------------------------
 1/14=-1,18=20,19=15,26=3,38=1,57=2/1,3;
 2/9=110,12=2,17=6,18=5,40=1/2;
 3/5=1,6=6,7=1,11=2,16=1,25=1,30=1,71=1,74=-5/1,2,3;
 4//1;
 5/5=2,38=5/2;
 6/7=2,8=2,9=2,10=2,28=1/1;
 7//1,2,3,16;
 1/14=-1,18=20,19=15/3(2);
 2/9=110/2;
 99//99;
 2/9=110/2;
 3/5=1,6=6,7=1,11=2,16=1,25=1,30=1,71=1,74=-5/1,2,3;
 4/5=5,16=3/1;
 5/5=2,38=5/2;
 7//1,2,3,16;
 1/14=-1,18=20,19=15/3(-5);
 2/9=110/2;
 6/7=2,8=2,9=2,10=2,19=2,28=1/1;
 99/9=1/99;
 --------
 reaction
 --------
 Charge =  0 Multiplicity = 2
 Symbolic Z-Matrix:
 C                    -3.80166  -0.63507  -0.16696 
 H                    -3.68927  -0.03209  -1.0437 
 Cl                   -0.61718  -1.7182    0.93646 
 H                    -2.35785  -1.12615   0.33332 
 Cl                   -4.80012  -2.03512  -0.54185 
 Cl                   -4.57132   0.31167   1.10147 
 

 GradGradGradGradGradGradGradGradGradGradGradGradGradGradGradGradGradGrad
 Berny optimization.
 Initialization pass.
                           ----------------------------
                           !    Initial Parameters    !
                           ! (Angstroms and Degrees)  !
 --------------------------                            --------------------------
 ! Name  Definition              Value          Derivative Info.                !
 --------------------------------------------------------------------------------
 ! R1    R(1,2)                  1.07           estimate D2E/DX2                !
 ! R2    R(1,4)                  1.605          estimate D2E/DX2                !
 ! R3    R(1,5)                  1.76           estimate D2E/DX2                !
 ! R4    R(1,6)                  1.76           estimate D2E/DX2                !
 ! R5    R(3,4)                  1.935          estimate D2E/DX2                !
 ! A1    A(2,1,4)              109.4712         estimate D2E/DX2                !
 ! A2    A(2,1,5)              109.4712         estimate D2E/DX2                !
 ! A3    A(2,1,6)              109.4712         estimate D2E/DX2                !
 ! A4    A(4,1,5)              109.4712         estimate D2E/DX2                !
 ! A5    A(4,1,6)              109.4712         estimate D2E/DX2                !
 ! A6    A(5,1,6)              109.4712         estimate D2E/DX2                !
 ! A7    L(1,4,3,5,-1)         180.0            estimate D2E/DX2                !
 ! A8    L(1,4,3,5,-2)         179.9999         estimate D2E/DX2                !
 ! D1    D(2,1,5,4)            120.0            estimate D2E/DX2                !
 ! D2    D(2,1,6,4)           -120.0            estimate D2E/DX2                !
 ! D3    D(2,1,6,5)            120.0            estimate D2E/DX2                !
 ! D4    D(4,1,6,5)           -120.0            estimate D2E/DX2                !
 --------------------------------------------------------------------------------
 Trust Radius=3.00D-01 FncErr=1.00D-07 GrdErr=1.00D-06
 Number of steps in this run=     27 maximum allowed number of steps=    100.
 GradGradGradGradGradGradGradGradGradGradGradGradGradGradGradGradGradGrad

                          Input orientation:                          
 ---------------------------------------------------------------------
 Center     Atomic      Atomic             Coordinates (Angstroms)
 Number     Number       Type             X           Y           Z
 ---------------------------------------------------------------------
      1          6           0       -3.801662   -0.635070   -0.166956
      2          1           0       -3.689266   -0.032091   -1.043701
      3         17           0       -0.617183   -1.718198    0.936463
      4          1           0       -2.357852   -1.126150    0.333324
      5         17           0       -4.800119   -2.035119   -0.541853
      6         17           0       -4.571324    0.311666    1.101472
 ---------------------------------------------------------------------
                    Distance matrix (angstroms):
                    1          2          3          4          5
     1  C    0.000000
     2  H    1.070000   0.000000
     3  Cl   3.540000   4.025133   0.000000
     4  H    1.605000   2.205862   1.935000   0.000000
     5  Cl   1.760000   2.344774   4.447786   2.748968   0.000000
     6  Cl   1.760000   2.344774   4.447786   2.748968   2.874068
                    6
     6  Cl   0.000000
 Stoichiometry    CH2Cl3(2)
 Framework group  CS[SG(CH2Cl),X(Cl2)]
 Deg. of freedom     8
 Full point group                 CS      NOp   2
 Largest Abelian subgroup         CS      NOp   2
 Largest concise Abelian subgroup CS      NOp   2
                         Standard orientation:                         
 ---------------------------------------------------------------------
 Center     Atomic      Atomic             Coordinates (Angstroms)
 Number     Number       Type             X           Y           Z
 ---------------------------------------------------------------------
      1          6           0       -0.840230   -0.029504    0.000000
      2          1           0       -1.713881    0.588261    0.000000
      3         17           0        2.050167    2.014318    0.000000
      4          1           0        0.470247    0.897143    0.000000
      5         17           0       -0.840230   -1.045641   -1.437034
      6         17           0       -0.840230   -1.045641    1.437034
 ---------------------------------------------------------------------
 Rotational constants (GHZ):      3.3137856      1.1821947      0.8963224
 Standard basis: 6-31G(d) (6D, 7F)
 There are    48 symmetry adapted basis functions of A'  symmetry.
 There are    28 symmetry adapted basis functions of A"  symmetry.
 Integral buffers will be    131072 words long.
 Raffenetti 2 integral format.
 Two-electron integral symmetry is turned on.
    76 basis functions,   192 primitive gaussians,    76 cartesian basis functions
    30 alpha electrons       29 beta electrons
       nuclear repulsion energy       224.8505730197 Hartrees.
 NAtoms=    6 NActive=    6 NUniq=    5 SFac= 1.44D+00 NAtFMM=   60 NAOKFM=F Big=F
 One-electron integrals computed using PRISM.
 NBasis=    76 RedAO= T  NBF=    48    28
 NBsUse=    76 1.00D-06 NBFU=    48    28
 Harris functional with IExCor=  402 diagonalized for initial guess.
 ExpMin= 1.43D-01 ExpMax= 2.52D+04 ExpMxC= 3.78D+03 IAcc=1 IRadAn=         1 AccDes= 0.00D+00
 HarFok:  IExCor=  402 AccDes= 0.00D+00 IRadAn=         1 IDoV= 1
 ScaDFX=  1.000000  1.000000  1.000000  1.000000
 FoFCou: FMM=F IPFlag=           0 FMFlag=      100000 FMFlg1=           0
         NFxFlg=           0 DoJE=T BraDBF=F KetDBF=T FulRan=T
         Omega=  0.000000  0.000000  1.000000  0.000000  0.000000 ICntrl=     500 IOpCl=  0
         NMat0=    1 NMatS0=    1 NMatT0=    0 NMatD0=    1 NMtDS0=    0 NMtDT0=    0
         I1Cent=           4 NGrid=           0.
 Petite list used in FoFCou.
 Initial guess orbital symmetries:
 Alpha Orbitals:
       Occupied  (A") (A') (A') (A') (A") (A') (A') (A') (A") (A")
                 (A") (A') (A') (A') (A") (A') (A') (A") (A') (A')
                 (A') (A") (A') (A') (A') (A") (A') (A") (A") (A')
       Virtual   (A') (A') (A") (A') (A') (A') (A") (A") (A') (A')
                 (A') (A") (A') (A") (A") (A') (A') (A') (A") (A")
                 (A') (A') (A') (A") (A") (A') (A') (A") (A') (A")
                 (A') (A") (A') (A") (A') (A') (A') (A") (A') (A')
                 (A") (A') (A') (A') (A") (A')
 Beta  Orbitals:
       Occupied  (A") (A') (A') (A') (A") (A') (A') (A') (A") (A")
                 (A") (A') (A') (A') (A") (A') (A') (A") (A') (A')
                 (A') (A") (A') (A') (A') (A") (A') (A") (A")
       Virtual   (A') (A') (A') (A") (A') (A') (A') (A") (A") (A')
                 (A') (A') (A") (A') (A") (A") (A') (A') (A') (A")
                 (A") (A') (A') (A') (A") (A") (A') (A') (A") (A')
                 (A") (A') (A") (A') (A") (A') (A') (A') (A") (A')
                 (A') (A") (A') (A') (A') (A") (A')
 The electronic state of the initial guess is 2-A'.
 Initial guess <Sx>= 0.0000 <Sy>= 0.0000 <Sz>= 0.5000 <S**2>= 0.7500 S= 0.5000
 Requested convergence on RMS density matrix=1.00D-08 within 128 cycles.
 Requested convergence on MAX density matrix=1.00D-06.
 Requested convergence on             energy=1.00D-06.
 No special actions if energy rises.
 Keep R1 and R2 ints in memory in canonical form, NReq=9546712.
 Integral accuracy reduced to 1.0D-05 until final iterations.
 Initial convergence to 1.0D-05 achieved.  Increase integral accuracy.
 SCF Done:  E(UB3LYP) =  -1419.78858717     A.U. after   24 cycles
             Convg  =    0.2518D-08             -V/T =  2.0034
 <Sx>= 0.0000 <Sy>= 0.0000 <Sz>= 0.5000 <S**2>= 0.7658 S= 0.5078
 <L.S>= 0.000000000000E+00
 Annihilation of the first spin contaminant:
 S**2 before annihilation     0.7658,   after     0.7500

 **********************************************************************

            Population analysis using the SCF density.

 **********************************************************************

 Orbital symmetries:
 Alpha Orbitals:
       Occupied  (A") (A') (A') (A') (A") (A') (A') (A') (A") (A")
                 (A') (A') (A") (A') (A') (A") (A') (A") (A') (A')
                 (A') (A") (A') (A') (A") (A') (A") (A') (A") (A')
       Virtual   (A') (A') (A") (A') (A') (A") (A") (A') (A') (A')
                 (A') (A") (A') (A") (A") (A') (A') (A') (A") (A")
                 (A') (A') (A') (A") (A") (A') (A') (A") (A') (A")
                 (A') (A") (A') (A") (A') (A') (A') (A") (A') (A')
                 (A") (A') (A') (A') (A") (A')
 Beta  Orbitals:
       Occupied  (A") (A') (A') (A') (A") (A') (A') (A') (A") (A")
                 (A') (A") (A') (A') (A') (A") (A') (A") (A') (A')
                 (A') (A") (A') (A') (A") (A') (A") (A') (A")
       Virtual   (A') (A') (A") (A') (A') (A') (A") (A") (A') (A')
                 (A') (A') (A") (A') (A") (A") (A') (A') (A') (A")
                 (A") (A') (A') (A") (A') (A") (A') (A') (A") (A')
                 (A') (A") (A") (A') (A") (A') (A') (A') (A") (A')
                 (A') (A") (A') (A') (A") (A') (A')
 The electronic state is 2-A'.
 Alpha  occ. eigenvalues -- -101.59943-101.59942-101.54506 -10.37151  -9.51599
 Alpha  occ. eigenvalues --   -9.51598  -9.45776  -7.28014  -7.28011  -7.27115
 Alpha  occ. eigenvalues --   -7.27115  -7.26916  -7.26916  -7.22750  -7.21092
 Alpha  occ. eigenvalues --   -7.21091  -0.95039  -0.86932  -0.79522  -0.68905
 Alpha  occ. eigenvalues --   -0.52232  -0.48783  -0.48084  -0.38403  -0.36706
 Alpha  occ. eigenvalues --   -0.36380  -0.34367  -0.30917  -0.30903  -0.30520
 Alpha virt. eigenvalues --   -0.04487  -0.00474   0.00125   0.08500   0.30416
 Alpha virt. eigenvalues --    0.35681   0.37555   0.38125   0.38655   0.40128
 Alpha virt. eigenvalues --    0.41975   0.43153   0.44185   0.47053   0.47737
 Alpha virt. eigenvalues --    0.48809   0.49406   0.57025   0.59455   0.74686
 Alpha virt. eigenvalues --    0.77873   0.78658   0.81801   0.82214   0.82951
 Alpha virt. eigenvalues --    0.83205   0.85163   0.85330   0.86491   0.88710
 Alpha virt. eigenvalues --    0.88710   0.92453   0.97163   1.01831   1.06821
 Alpha virt. eigenvalues --    1.13582   1.26254   1.66184   1.70076   1.85690
 Alpha virt. eigenvalues --    2.09914   2.12541   3.96771   4.22343   4.22662
 Alpha virt. eigenvalues --    4.27363
  Beta  occ. eigenvalues -- -101.59868-101.59868-101.54104 -10.36537  -9.51530
  Beta  occ. eigenvalues --   -9.51529  -9.45399  -7.27954  -7.27952  -7.26904
  Beta  occ. eigenvalues --   -7.26904  -7.26871  -7.26871  -7.21474  -7.20863
  Beta  occ. eigenvalues --   -7.20862  -0.94405  -0.86483  -0.76591  -0.67649
  Beta  occ. eigenvalues --   -0.51420  -0.48300  -0.46055  -0.36810  -0.35670
  Beta  occ. eigenvalues --   -0.34617  -0.34134  -0.30000  -0.29986
  Beta virt. eigenvalues --   -0.21856  -0.03622   0.00902   0.01008   0.09032
  Beta virt. eigenvalues --    0.30561   0.35830   0.37783   0.38842   0.39513
  Beta virt. eigenvalues --    0.40376   0.42092   0.43451   0.44527   0.47236
  Beta virt. eigenvalues --    0.48090   0.49689   0.51043   0.59262   0.59856
  Beta virt. eigenvalues --    0.75346   0.78339   0.80074   0.82785   0.83432
  Beta virt. eigenvalues --    0.83440   0.83849   0.86867   0.88816   0.88959
  Beta virt. eigenvalues --    0.89235   0.89235   0.92677   0.97872   1.02336
  Beta virt. eigenvalues --    1.07047   1.14091   1.27276   1.68231   1.71503
  Beta virt. eigenvalues --    1.88577   2.10848   2.13934   3.97740   4.22890
  Beta virt. eigenvalues --    4.23521   4.27979
          Condensed to atoms (all electrons):
              1          2          3          4          5          6
     1  C    5.426263   0.357214  -0.021746   0.176118   0.221298   0.221298
     2  H    0.357214   0.478486  -0.000072  -0.014059  -0.046948  -0.046948
     3  Cl  -0.021746  -0.000072  17.125260   0.112193   0.000650   0.000650
     4  H    0.176118  -0.014059   0.112193   0.632865  -0.025834  -0.025834
     5  Cl   0.221298  -0.046948   0.000650  -0.025834  16.842131  -0.081549
     6  Cl   0.221298  -0.046948   0.000650  -0.025834  -0.081549  16.842131
 Mulliken atomic charges:
              1
     1  C   -0.380446
     2  H    0.272327
     3  Cl  -0.216936
     4  H    0.144552
     5  Cl   0.090252
     6  Cl   0.090252
 Sum of Mulliken atomic charges =   0.00000
 Mulliken charges with hydrogens summed into heavy atoms:
              1
     1  C    0.036433
     3  Cl  -0.216936
     5  Cl   0.090252
     6  Cl   0.090252
 Sum of Mulliken charges with hydrogens summed into heavy atoms =   0.00000
          Atomic-Atomic Spin Densities.
              1          2          3          4          5          6
     1  C    0.453221  -0.011521  -0.024378   0.050760  -0.054537  -0.054537
     2  H   -0.011521   0.014404   0.001006  -0.000334   0.001149   0.001149
     3  Cl  -0.024378   0.001006   0.613547  -0.031013   0.002734   0.002734
     4  H    0.050760  -0.000334  -0.031013  -0.129892  -0.002670  -0.002670
     5  Cl  -0.054537   0.001149   0.002734  -0.002670   0.139669   0.006817
     6  Cl  -0.054537   0.001149   0.002734  -0.002670   0.006817   0.139669
 Mulliken atomic spin densities:
              1
     1  C    0.359008
     2  H    0.005854
     3  Cl   0.564631
     4  H   -0.115818
     5  Cl   0.093163
     6  Cl   0.093163
 Sum of Mulliken atomic spin densities =   1.00000
 Electronic spatial extent (au):  <R**2>=           1104.2672
 Charge=              0.0000 electrons
 Dipole moment (field-independent basis, Debye):
    X=             -3.1246    Y=             -1.1952    Z=              0.0000  Tot=              3.3454
 Quadrupole moment (field-independent basis, Debye-Ang):
   XX=            -45.8504   YY=            -47.9181   ZZ=            -44.8248
   XY=             -3.9562   XZ=              0.0000   YZ=              0.0000
 Traceless Quadrupole moment (field-independent basis, Debye-Ang):
   XX=              0.3474   YY=             -1.7203   ZZ=              1.3730
   XY=             -3.9562   XZ=              0.0000   YZ=              0.0000
 Octapole moment (field-independent basis, Debye-Ang**2):
  XXX=            -10.0419  YYY=            -12.9627  ZZZ=              0.0000  XYY=             -6.3780
  XXY=             -2.7137  XXZ=              0.0000  XZZ=             -2.0451  YZZ=             -6.9314
  YYZ=              0.0000  XYZ=              0.0000
 Hexadecapole moment (field-independent basis, Debye-Ang**3):
 XXXX=           -503.4126 YYYY=           -542.7311 ZZZZ=           -338.5570 XXXY=           -225.5367
 XXXZ=              0.0000 YYYX=           -228.3154 YYYZ=              0.0000 ZZZX=              0.0000
 ZZZY=              0.0000 XXYY=           -171.9581 XXZZ=           -147.5266 YYZZ=           -138.5890
 XXYZ=              0.0000 YYXZ=              0.0000 ZZXY=            -72.8465
 N-N= 2.248505730197D+02 E-N=-5.721238109081D+03  KE= 2.121123736288D+03
 Symmetry A'   KE= 1.361219874840D+03
 Symmetry A"   KE= 7.599038614481D+02
                          Isotropic Fermi Contact Couplings
        Atom                 a.u.       MegaHertz       Gauss      10(-4) cm-1
     1  C(13)              0.14073     158.20609      56.45186      52.77187
     2  H(1)               0.00763      34.08662      12.16295      11.37007
     3  Cl(35)             0.01025       4.49482       1.60386       1.49931
     4  H(1)              -0.03028    -135.35410     -48.29771     -45.14927
     5  Cl(35)             0.01597       7.00200       2.49849       2.33562
     6  Cl(35)             0.01597       7.00200       2.49849       2.33562
 --------------------------------------------------------
       Center         ----  Spin Dipole Couplings  ----
                      3XX-RR        3YY-RR        3ZZ-RR
 --------------------------------------------------------
     1   Atom        0.286163     -0.079199     -0.206964
     2   Atom        0.014915      0.008756     -0.023671
     3   Atom        1.866254     -0.129455     -1.736799
     4   Atom        0.041309      0.001779     -0.043088
     5   Atom        0.486875     -0.109992     -0.376883
     6   Atom        0.486875     -0.109992     -0.376883
 --------------------------------------------------------
                        XY            XZ            YZ
 --------------------------------------------------------
     1   Atom        0.251423      0.000000      0.000000
     2   Atom       -0.020387      0.000000      0.000000
     3   Atom        2.406560      0.000000      0.000000
     4   Atom        0.061658      0.000000      0.000000
     5   Atom        0.456742      0.129382      0.019256
     6   Atom        0.456742     -0.129382     -0.019256
 --------------------------------------------------------


 ---------------------------------------------------------------------------------
              Anisotropic Spin Dipole Couplings in Principal Axis System
 ---------------------------------------------------------------------------------

       Atom             a.u.   MegaHertz   Gauss  10(-4) cm-1        Axes

              Baa    -0.2073   -27.818    -9.926    -9.279 -0.4540  0.8910  0.0000
     1 C(13)  Bbb    -0.2070   -27.773    -9.910    -9.264  0.0000  0.0000  1.0000
              Bcc     0.4143    55.590    19.836    18.543  0.8910  0.4540  0.0000
 
              Baa    -0.0237   -12.630    -4.507    -4.213  0.0000  0.0000  1.0000
     2 H(1)   Bbb    -0.0088    -4.686    -1.672    -1.563  0.6522  0.7581  0.0000
              Bcc     0.0325    17.316     6.179     5.776  0.7581 -0.6522  0.0000
 
              Baa    -1.7368   -90.902   -32.436   -30.322 -0.5554  0.8316  0.0000
     3 Cl(35) Bbb    -1.7368   -90.900   -32.435   -30.321  0.0000  0.0000  1.0000
              Bcc     3.4736   181.802    64.871    60.643  0.8316  0.5554  0.0000
 
              Baa    -0.0432   -23.052    -8.225    -7.689 -0.5894  0.8079  0.0000
     4 H(1)   Bbb    -0.0431   -22.990    -8.203    -7.669  0.0000  0.0000  1.0000
              Bcc     0.0863    46.042    16.429    15.358  0.8079  0.5894  0.0000
 
              Baa    -0.4211   -22.041    -7.865    -7.352 -0.3478  0.4600  0.8169
     5 Cl(35) Bbb    -0.3264   -17.082    -6.095    -5.698 -0.3332  0.7538 -0.5663
              Bcc     0.7475    39.123    13.960    13.050  0.8763  0.4692  0.1089
 
              Baa    -0.4211   -22.041    -7.865    -7.352  0.3478 -0.4600  0.8169
     6 Cl(35) Bbb    -0.3264   -17.082    -6.095    -5.698 -0.3332  0.7538  0.5663
              Bcc     0.7475    39.123    13.960    13.050  0.8763  0.4692 -0.1089
 

 ---------------------------------------------------------------------------------

 Calling FoFJK, ICntrl=      2127 FMM=F ISym2X=1 I1Cent= 0 IOpClX= 1 NMat=1 NMatS=1 NMatT=0.
 ***** Axes restored to original set *****
 -------------------------------------------------------------------
 Center     Atomic                   Forces (Hartrees/Bohr)
 Number     Number              X              Y              Z
 -------------------------------------------------------------------
      1        6           0.012274596   -0.021578375    0.029106497
      2        1           0.013492115    0.005655508   -0.009954927
      3       17          -0.027660667    0.009585238   -0.009837298
      4        1          -0.020530106    0.007527950   -0.007892109
      5       17           0.010885187   -0.003947655   -0.003058650
      6       17           0.011538875    0.002757333    0.001636487
 -------------------------------------------------------------------
 Cartesian Forces:  Max     0.029106497 RMS     0.014058723

 GradGradGradGradGradGradGradGradGradGradGradGradGradGradGradGradGradGrad
 Berny optimization.
 Internal  Forces:  Max     0.054113663 RMS     0.017241552
 Search for a local minimum.
 Step number   1 out of a maximum of   27
 All quantities printed in internal units (Hartrees-Bohrs-Radians)
 Mixed Optimization -- RFO/linear search
 Second derivative matrix not updated -- first step.
 The second derivative matrix:
                          R1        R2        R3        R4        R5
           R1           0.37230
           R2           0.00000   0.08998
           R3           0.00000   0.00000   0.29539
           R4           0.00000   0.00000   0.00000   0.29539
           R5           0.00000   0.00000   0.00000   0.00000   0.06444
           A1           0.00000   0.00000   0.00000   0.00000   0.00000
           A2           0.00000   0.00000   0.00000   0.00000   0.00000
           A3           0.00000   0.00000   0.00000   0.00000   0.00000
           A4           0.00000   0.00000   0.00000   0.00000   0.00000
           A5           0.00000   0.00000   0.00000   0.00000   0.00000
           A6           0.00000   0.00000   0.00000   0.00000   0.00000
           A7           0.00000   0.00000   0.00000   0.00000   0.00000
           A8           0.00000   0.00000   0.00000   0.00000   0.00000
           D1           0.00000   0.00000   0.00000   0.00000   0.00000
           D2           0.00000   0.00000   0.00000   0.00000   0.00000
           D3           0.00000   0.00000   0.00000   0.00000   0.00000
           D4           0.00000   0.00000   0.00000   0.00000   0.00000
                          A1        A2        A3        A4        A5
           A1           0.16000
           A2           0.00000   0.16000
           A3           0.00000   0.00000   0.16000
           A4           0.00000   0.00000   0.00000   0.16000
           A5           0.00000   0.00000   0.00000   0.00000   0.16000
           A6           0.00000   0.00000   0.00000   0.00000   0.00000
           A7           0.00000   0.00000   0.00000   0.00000   0.00000
           A8           0.00000   0.00000   0.00000   0.00000   0.00000
           D1           0.00000   0.00000   0.00000   0.00000   0.00000
           D2           0.00000   0.00000   0.00000   0.00000   0.00000
           D3           0.00000   0.00000   0.00000   0.00000   0.00000
           D4           0.00000   0.00000   0.00000   0.00000   0.00000
                          A6        A7        A8        D1        D2
           A6           0.25000
           A7           0.00000   0.00230
           A8           0.00000   0.00000   0.00230
           D1           0.00000   0.00000   0.00000   0.00238
           D2           0.00000   0.00000   0.00000   0.00000   0.00238
           D3           0.00000   0.00000   0.00000   0.00000   0.00000
           D4           0.00000   0.00000   0.00000   0.00000   0.00000
                          D3        D4
           D3           0.00238
           D4           0.00000   0.00238
 ITU=  0
     Eigenvalues ---    0.00230   0.00230   0.05411   0.05720   0.06444
     Eigenvalues ---    0.08670   0.08998   0.16000   0.21983   0.29539
     Eigenvalues ---    0.29539   0.37230
 RFO step:  Lambda=-3.84184362D-02 EMin= 2.30000000D-03
 Linear search not attempted -- first point.
 Maximum step size (   0.300) exceeded in Quadratic search.
    -- Step size scaled by   0.558
 Iteration  1 RMS(Cart)=  0.10325189 RMS(Int)=  0.00861353
 Iteration  2 RMS(Cart)=  0.00988124 RMS(Int)=  0.00065478
 Iteration  3 RMS(Cart)=  0.00000109 RMS(Int)=  0.00065478
 Iteration  4 RMS(Cart)=  0.00000000 RMS(Int)=  0.00065478
 ClnCor:  largest displacement from symmetrization is 1.56D-02 for atom     6.
 Variable       Old X    -DE/DX   Delta X   Delta X   Delta X     New X
                                 (Linear)    (Quad)   (Total)
    R1        2.02201   0.01276   0.00000   0.01733   0.01732   2.03933
    R2        3.03301  -0.05411   0.00000  -0.23507  -0.23507   2.79794
    R3        3.32592  -0.00238   0.00000  -0.00398  -0.00376   3.32216
    R4        3.32592  -0.00238   0.00000  -0.00398  -0.00376   3.32216
    R5        3.65662  -0.03088   0.00000  -0.16746  -0.16748   3.48914
    A1        1.91063  -0.00134   0.00000  -0.02813  -0.02811   1.88253
    A2        1.91063  -0.00391   0.00000   0.01046   0.01101   1.92165
    A3        1.91063   0.00138   0.00000   0.01752   0.01101   1.92165
    A4        1.91063  -0.00832   0.00000  -0.02752  -0.02604   1.88459
    A5        1.91063  -0.01097   0.00000  -0.02998  -0.02604   1.88459
    A6        1.91063   0.02316   0.00000   0.05766   0.05560   1.96623
    A7        3.14159   0.00052   0.00000   0.00709   0.00362   3.14522
    A8        3.14159  -0.00054   0.00000  -0.00741  -0.01040   3.13119
    D1        2.09440  -0.00913   0.00000  -0.04490  -0.04319   2.05120
    D2       -2.09440   0.00752   0.00000   0.04209   0.04319  -2.05120
    D3        2.09440   0.01024   0.00000   0.05885   0.05801   2.15241
    D4       -2.09440   0.00272   0.00000   0.01676   0.01482  -2.07958
         Item               Value     Threshold  Converged?
 Maximum Force            0.054114     0.000450     NO 
 RMS     Force            0.017242     0.000300     NO 
 Maximum Displacement     0.306670     0.001800     NO 
 RMS     Displacement     0.111091     0.001200     NO 
 Predicted change in Energy=-1.725598D-02
 GradGradGradGradGradGradGradGradGradGradGradGradGradGradGradGradGradGrad

                          Input orientation:                          
 ---------------------------------------------------------------------
 Center     Atomic      Atomic             Coordinates (Angstroms)
 Number     Number       Type             X           Y           Z
 ---------------------------------------------------------------------
      1          6           0       -3.773039   -0.650854   -0.148400
      2          1           0       -3.625753   -0.047312   -1.030808
      3         17           0       -0.779466   -1.667956    0.887307
      4          1           0       -2.443469   -1.106528    0.317222
      5         17           0       -4.727188   -2.073957   -0.542073
      6         17           0       -4.494248    0.315341    1.131023
 ---------------------------------------------------------------------
                    Distance matrix (angstroms):
                    1          2          3          4          5
     1  C    0.000000
     2  H    1.079166   0.000000
     3  Cl   3.326960   3.795655   0.000000
     4  H    1.480608   2.082527   1.846376   0.000000
     5  Cl   1.758010   2.357820   4.218112   2.624820   0.000000
     6  Cl   1.758010   2.357820   4.218112   2.624820   2.926133
                    6
     6  Cl   0.000000
 Stoichiometry    CH2Cl3(2)
 Framework group  CS[SG(CH2Cl),X(Cl2)]
 Deg. of freedom     8
 Full point group                 CS      NOp   2
 Largest Abelian subgroup         CS      NOp   2
 Largest concise Abelian subgroup CS      NOp   2
                         Standard orientation:                         
 ---------------------------------------------------------------------
 Center     Atomic      Atomic             Coordinates (Angstroms)
 Number     Number       Type             X           Y           Z
 ---------------------------------------------------------------------
      1          6           0       -0.800571   -0.000635    0.000000
      2          1           0       -1.647365    0.668348    0.000000
      3         17           0        1.955343    1.863125    0.000000
      4          1           0        0.429362    0.823661    0.000000
      5         17           0       -0.800571   -0.975333   -1.463067
      6         17           0       -0.800571   -0.975333    1.463067
 ---------------------------------------------------------------------
 Rotational constants (GHZ):      3.2087160      1.3364769      0.9717837
 Standard basis: 6-31G(d) (6D, 7F)
 There are    48 symmetry adapted basis functions of A'  symmetry.
 There are    28 symmetry adapted basis functions of A"  symmetry.
 Integral buffers will be    131072 words long.
 Raffenetti 2 integral format.
 Two-electron integral symmetry is turned on.
    76 basis functions,   192 primitive gaussians,    76 cartesian basis functions
    30 alpha electrons       29 beta electrons
       nuclear repulsion energy       229.4745279420 Hartrees.
 NAtoms=    6 NActive=    6 NUniq=    5 SFac= 1.44D+00 NAtFMM=   60 NAOKFM=F Big=F
 One-electron integrals computed using PRISM.
 NBasis=    76 RedAO= T  NBF=    48    28
 NBsUse=    76 1.00D-06 NBFU=    48    28
 Initial guess read from the read-write file.
 B after Tr=     0.000000    0.000000    0.000000
         Rot=    1.000000    0.000000    0.000000    0.000000 Ang=   0.00 deg.
 Initial guess orbital symmetries:
 Alpha Orbitals:
       Occupied  (A") (A') (A') (A') (A") (A') (A') (A') (A") (A")
                 (A') (A') (A") (A') (A') (A") (A') (A") (A') (A')
                 (A') (A") (A') (A') (A") (A') (A") (A') (A") (A')
       Virtual   (A') (A') (A") (A') (A') (A") (A") (A') (A') (A')
                 (A') (A") (A') (A") (A") (A') (A') (A') (A") (A")
                 (A') (A') (A') (A") (A") (A') (A') (A") (A') (A")
                 (A') (A") (A') (A") (A') (A') (A') (A") (A') (A')
                 (A") (A') (A') (A') (A") (A')
 Beta  Orbitals:
       Occupied  (A") (A') (A') (A') (A") (A') (A') (A') (A") (A")
                 (A') (A") (A') (A') (A') (A") (A') (A") (A') (A')
                 (A') (A") (A') (A') (A") (A') (A") (A') (A")
       Virtual   (A') (A') (A") (A') (A') (A') (A") (A") (A') (A')
                 (A') (A') (A") (A') (A") (A") (A') (A') (A') (A")
                 (A") (A') (A') (A") (A') (A") (A') (A') (A") (A')
                 (A') (A") (A") (A') (A") (A') (A') (A') (A") (A')
                 (A') (A") (A') (A') (A") (A') (A')
 Initial guess <Sx>= 0.0000 <Sy>= 0.0000 <Sz>= 0.5000 <S**2>= 0.7635 S= 0.5067
 Harris functional with IExCor=  402 diagonalized for initial guess.
 ExpMin= 1.43D-01 ExpMax= 2.52D+04 ExpMxC= 3.78D+03 IAcc=1 IRadAn=         1 AccDes= 0.00D+00
 HarFok:  IExCor=  402 AccDes= 0.00D+00 IRadAn=         1 IDoV= 1
 ScaDFX=  1.000000  1.000000  1.000000  1.000000
 FoFCou: FMM=F IPFlag=           0 FMFlag=      100000 FMFlg1=           0
         NFxFlg=           0 DoJE=T BraDBF=F KetDBF=T FulRan=T
         Omega=  0.000000  0.000000  1.000000  0.000000  0.000000 ICntrl=     500 IOpCl=  0
         NMat0=    1 NMatS0=    1 NMatT0=    0 NMatD0=    1 NMtDS0=    0 NMtDT0=    0
         I1Cent=           4 NGrid=           0.
 Petite list used in FoFCou.
 Requested convergence on RMS density matrix=1.00D-08 within 128 cycles.
 Requested convergence on MAX density matrix=1.00D-06.
 Requested convergence on             energy=1.00D-06.
 No special actions if energy rises.
 Keep R1 and R2 ints in memory in canonical form, NReq=9546712.
 Integral accuracy reduced to 1.0D-05 until final iterations.
 Initial convergence to 1.0D-05 achieved.  Increase integral accuracy.
 SCF Done:  E(UB3LYP) =  -1419.80831656     A.U. after   20 cycles
             Convg  =    0.3035D-08             -V/T =  2.0034
 <Sx>= 0.0000 <Sy>= 0.0000 <Sz>= 0.5000 <S**2>= 0.7599 S= 0.5049
 <L.S>= 0.000000000000E+00
 Annihilation of the first spin contaminant:
 S**2 before annihilation     0.7599,   after     0.7500
 Calling FoFJK, ICntrl=      2127 FMM=F ISym2X=1 I1Cent= 0 IOpClX= 1 NMat=1 NMatS=1 NMatT=0.
 ***** Axes restored to original set *****
 -------------------------------------------------------------------
 Center     Atomic                   Forces (Hartrees/Bohr)
 Number     Number              X              Y              Z
 -------------------------------------------------------------------
      1        6           0.023335189   -0.017928302    0.022354006
      2        1           0.008629644    0.002317778   -0.004511428
      3       17          -0.022023933    0.007673173   -0.007891516
      4        1          -0.023020533    0.008500752   -0.008934605
      5       17           0.006530496   -0.000377302   -0.000575173
      6       17           0.006549137   -0.000186099   -0.000441284
 -------------------------------------------------------------------
 Cartesian Forces:  Max     0.023335189 RMS     0.012561705

 GradGradGradGradGradGradGradGradGradGradGradGradGradGradGradGradGradGrad
 Berny optimization.
 Using GEDIIS/GDIIS optimizer.
 Internal  Forces:  Max     0.050720505 RMS     0.014301756
 Search for a local minimum.
 Step number   2 out of a maximum of   27
 All quantities printed in internal units (Hartrees-Bohrs-Radians)
 Mixed Optimization -- RFO/linear search
 Update second derivatives using D2CorX and points    1    2
 DE= -1.97D-02 DEPred=-1.73D-02 R= 1.14D+00
 SS=  1.41D+00  RLast= 3.11D-01 DXNew= 5.0454D-01 9.3218D-01
 Trust test= 1.14D+00 RLast= 3.11D-01 DXMaxT set to 5.05D-01
 The second derivative matrix:
                          R1        R2        R3        R4        R5
           R1           0.37969
           R2           0.01045   0.03787
           R3           0.00227  -0.00362   0.29539
           R4           0.00227  -0.00362   0.00000   0.29539
           R5          -0.00329  -0.02216  -0.00279  -0.00280   0.06131
           A1           0.00424  -0.01212  -0.00055  -0.00055  -0.00663
           A2          -0.00552   0.00673  -0.00021  -0.00021   0.00626
           A3          -0.00101   0.00441   0.00029   0.00029   0.00198
           A4          -0.00545  -0.00640  -0.00154  -0.00154   0.00276
           A5          -0.00778  -0.00521  -0.00179  -0.00180   0.00498
           A6           0.01312   0.02397   0.00457   0.00458  -0.00441
           A7          -0.00026   0.00015  -0.00003  -0.00003   0.00025
           A8           0.00043  -0.00028   0.00004   0.00004  -0.00043
           D1          -0.00749   0.00362  -0.00085  -0.00085   0.00705
           D2           0.00593  -0.00282   0.00068   0.00068  -0.00557
           D3           0.00790  -0.00376   0.00090   0.00090  -0.00742
           D4           0.00197  -0.00094   0.00022   0.00023  -0.00185
                          A1        A2        A3        A4        A5
           A1           0.15753
           A2           0.00077   0.16096
           A3           0.00100  -0.00051   0.15963
           A4          -0.00278   0.00379   0.00063   0.16399
           A5          -0.00290   0.00455   0.00056   0.00563   0.16769
           A6           0.00900  -0.01097  -0.00227  -0.00978  -0.01428
           A7          -0.00001   0.00008  -0.00001   0.00018   0.00023
           A8           0.00001  -0.00013   0.00002  -0.00030  -0.00038
           D1          -0.00045   0.00250  -0.00022   0.00525   0.00665
           D2           0.00037  -0.00199   0.00017  -0.00416  -0.00527
           D3           0.00049  -0.00266   0.00022  -0.00554  -0.00703
           D4           0.00012  -0.00066   0.00006  -0.00138  -0.00175
                          A6        A7        A8        D1        D2
           A6           0.27283
           A7          -0.00050   0.00231
           A8           0.00084  -0.00001   0.00231
           D1          -0.01444   0.00015  -0.00025   0.00695
           D2           0.01143  -0.00012   0.00020  -0.00363   0.00526
           D3           0.01524  -0.00016   0.00027  -0.00483   0.00384
           D4           0.00380  -0.00004   0.00007  -0.00121   0.00096
                          D3        D4
           D3           0.00749
           D4           0.00128   0.00270
 ITU=  1  0
 Use linear search instead of GDIIS.
 Linear search step of   0.598 exceeds DXMaxT=   0.505 but not scaled.
 Quartic linear search produced a step of  2.00000.
 Iteration  1 RMS(Cart)=  0.12864800 RMS(Int)=  0.07364445
 Iteration  2 RMS(Cart)=  0.07836129 RMS(Int)=  0.01752422
 Iteration  3 RMS(Cart)=  0.01984083 RMS(Int)=  0.00333676
 Iteration  4 RMS(Cart)=  0.00000722 RMS(Int)=  0.00333674
 Iteration  5 RMS(Cart)=  0.00000002 RMS(Int)=  0.00333674
 ClnCor:  largest displacement from symmetrization is 4.64D-03 for atom     6.
 Variable       Old X    -DE/DX   Delta X   Delta X   Delta X     New X
                                 (Linear)    (Quad)   (Total)
    R1        2.03933   0.00616   0.03464   0.00000   0.03464   2.07397
    R2        2.79794  -0.05072  -0.47013   0.00000  -0.47014   2.32781
    R3        3.32216  -0.00311  -0.00752   0.00000  -0.00724   3.31491
    R4        3.32216  -0.00311  -0.00752   0.00000  -0.00724   3.31491
    R5        3.48914  -0.02462  -0.33495   0.00000  -0.33495   3.15419
    A1        1.88253  -0.00169  -0.05622   0.00000  -0.05654   1.82598
    A2        1.92165  -0.00174   0.02203   0.00000   0.01394   1.93559
    A3        1.92165   0.00117   0.02203   0.00000   0.01394   1.93559
    A4        1.88459  -0.00370  -0.05209   0.00000  -0.04900   1.83559
    A5        1.88459  -0.00512  -0.05209   0.00000  -0.04900   1.83559
    A6        1.96623   0.01042   0.11119   0.00000   0.10651   2.07274
    A7        3.14522   0.00065   0.00725   0.00000   0.00722   3.15244
    A8        3.13119  -0.00076  -0.02080   0.00000  -0.02081   3.11039
    D1        2.05120  -0.00515  -0.08639   0.00000  -0.08681   1.96440
    D2       -2.05120   0.00436   0.08639   0.00000   0.08681  -1.96440
    D3        2.15241   0.00602   0.11603   0.00000   0.11968   2.27209
    D4       -2.07958   0.00167   0.02964   0.00000   0.03288  -2.04670
         Item               Value     Threshold  Converged?
 Maximum Force            0.050721     0.000450     NO 
 RMS     Force            0.014302     0.000300     NO 
 Maximum Displacement     0.604740     0.001800     NO 
 RMS     Displacement     0.220823     0.001200     NO 
 Predicted change in Energy=-2.875210D-02
 GradGradGradGradGradGradGradGradGradGradGradGradGradGradGradGradGradGrad

                          Input orientation:                          
 ---------------------------------------------------------------------
 Center     Atomic      Atomic             Coordinates (Angstroms)
 Number     Number       Type             X           Y           Z
 ---------------------------------------------------------------------
      1          6           0       -3.714375   -0.684728   -0.108193
      2          1           0       -3.497136   -0.081953   -0.999244
      3         17           0       -1.099481   -1.565979    0.786233
      4          1           0       -2.611434   -1.067443    0.284791
      5         17           0       -4.581449   -2.147677   -0.538428
      6         17           0       -4.341105    0.317575    1.187853
 ---------------------------------------------------------------------
                    Distance matrix (angstroms):
                    1          2          3          4          5
     1  C    0.000000
     2  H    1.097498   0.000000
     3  Cl   2.900737   3.337516   0.000000
     4  H    1.231823   1.845103   1.669127   0.000000
     5  Cl   1.754177   2.378087   3.770570   2.392813   0.000000
     6  Cl   1.754177   2.378087   3.770570   2.392813   3.019152
                    6
     6  Cl   0.000000
 Stoichiometry    CH2Cl3(2)
 Framework group  CS[SG(CH2Cl),X(Cl2)]
 Deg. of freedom     8
 Full point group                 CS      NOp   2
 Largest Abelian subgroup         CS      NOp   2
 Largest concise Abelian subgroup CS      NOp   2
                         Standard orientation:                         
 ---------------------------------------------------------------------
 Center     Atomic      Atomic             Coordinates (Angstroms)
 Number     Number       Type             X           Y           Z
 ---------------------------------------------------------------------
      1          6           0       -0.715550    0.051621    0.000000
      2          1           0       -1.498870    0.820329    0.000000
      3         17           0        1.751743    1.576988    0.000000
      4          1           0        0.341231    0.684553    0.000000
      5         17           0       -0.715550   -0.841865   -1.509576
      6         17           0       -0.715550   -0.841865    1.509576
 ---------------------------------------------------------------------
 Rotational constants (GHZ):      3.0343511      1.7468163      1.1446538
 Standard basis: 6-31G(d) (6D, 7F)
 There are    48 symmetry adapted basis functions of A'  symmetry.
 There are    28 symmetry adapted basis functions of A"  symmetry.
 Integral buffers will be    131072 words long.
 Raffenetti 2 integral format.
 Two-electron integral symmetry is turned on.
    76 basis functions,   192 primitive gaussians,    76 cartesian basis functions
    30 alpha electrons       29 beta electrons
       nuclear repulsion energy       240.8480331590 Hartrees.
 NAtoms=    6 NActive=    6 NUniq=    5 SFac= 1.44D+00 NAtFMM=   60 NAOKFM=F Big=F
 One-electron integrals computed using PRISM.
 NBasis=    76 RedAO= T  NBF=    48    28
 NBsUse=    76 1.00D-06 NBFU=    48    28
 Initial guess read from the read-write file.
 B after Tr=     0.000000    0.000000    0.000000
         Rot=    1.000000    0.000000    0.000000    0.000000 Ang=   0.00 deg.
 Initial guess orbital symmetries:
 Alpha Orbitals:
       Occupied  (A") (A') (A') (A') (A") (A') (A') (A') (A") (A")
                 (A') (A") (A') (A') (A') (A") (A') (A") (A') (A')
                 (A') (A') (A") (A') (A") (A') (A") (A') (A") (A')
       Virtual   (A') (A") (A') (A') (A') (A") (A") (A') (A') (A')
                 (A') (A") (A') (A') (A") (A") (A') (A') (A") (A")
                 (A') (A') (A") (A') (A") (A') (A') (A") (A') (A")
                 (A') (A") (A') (A") (A') (A') (A') (A") (A') (A')
                 (A") (A') (A') (A') (A") (A')
 Beta  Orbitals:
       Occupied  (A") (A') (A') (A') (A") (A') (A') (A') (A") (A")
                 (A') (A") (A') (A') (A') (A") (A') (A") (A') (A')
                 (A') (A") (A') (A') (A") (A') (A") (A') (A")
       Virtual   (A') (A') (A") (A') (A') (A') (A") (A") (A') (A')
                 (A') (A') (A") (A') (A") (A') (A") (A') (A") (A')
                 (A") (A') (A') (A") (A") (A') (A') (A') (A") (A')
                 (A") (A') (A") (A') (A") (A') (A') (A') (A") (A')
                 (A') (A") (A') (A') (A") (A') (A')
 Initial guess <Sx>= 0.0000 <Sy>= 0.0000 <Sz>= 0.5000 <S**2>= 0.7568 S= 0.5034
 Harris functional with IExCor=  402 diagonalized for initial guess.
 ExpMin= 1.43D-01 ExpMax= 2.52D+04 ExpMxC= 3.78D+03 IAcc=1 IRadAn=         1 AccDes= 0.00D+00
 HarFok:  IExCor=  402 AccDes= 0.00D+00 IRadAn=         1 IDoV= 1
 ScaDFX=  1.000000  1.000000  1.000000  1.000000
 FoFCou: FMM=F IPFlag=           0 FMFlag=      100000 FMFlg1=           0
         NFxFlg=           0 DoJE=T BraDBF=F KetDBF=T FulRan=T
         Omega=  0.000000  0.000000  1.000000  0.000000  0.000000 ICntrl=     500 IOpCl=  0
         NMat0=    1 NMatS0=    1 NMatT0=    0 NMatD0=    1 NMtDS0=    0 NMtDT0=    0
         I1Cent=           4 NGrid=           0.
 Petite list used in FoFCou.
 Requested convergence on RMS density matrix=1.00D-08 within 128 cycles.
 Requested convergence on MAX density matrix=1.00D-06.
 Requested convergence on             energy=1.00D-06.
 No special actions if energy rises.
 Keep R1 and R2 ints in memory in canonical form, NReq=9546684.
 Integral accuracy reduced to 1.0D-05 until final iterations.
 Initial convergence to 1.0D-05 achieved.  Increase integral accuracy.
 SCF Done:  E(UB3LYP) =  -1419.82968323     A.U. after   19 cycles
             Convg  =    0.4819D-08             -V/T =  2.0032
 <Sx>= 0.0000 <Sy>= 0.0000 <Sz>= 0.5000 <S**2>= 0.7547 S= 0.5023
 <L.S>= 0.000000000000E+00
 Annihilation of the first spin contaminant:
 S**2 before annihilation     0.7547,   after     0.7500
 Calling FoFJK, ICntrl=      2127 FMM=F ISym2X=1 I1Cent= 0 IOpClX= 1 NMat=1 NMatS=1 NMatT=0.
 ***** Axes restored to original set *****
 -------------------------------------------------------------------
 Center     Atomic                   Forces (Hartrees/Bohr)
 Number     Number              X              Y              Z
 -------------------------------------------------------------------
      1        6           0.016225731   -0.000572844   -0.001440992
      2        1          -0.002124106   -0.002695241    0.004144728
      3       17           0.003912605   -0.000835957    0.000649067
      4        1          -0.010512591    0.003704697   -0.003826938
      5       17          -0.003461744    0.003164765    0.002313360
      6       17          -0.004039895   -0.002765420   -0.001839225
 -------------------------------------------------------------------
 Cartesian Forces:  Max     0.016225731 RMS     0.005294910

 GradGradGradGradGradGradGradGradGradGradGradGradGradGradGradGradGradGrad
 Berny optimization.
 Using GEDIIS/GDIIS optimizer.
 Internal  Forces:  Max     0.010647275 RMS     0.004168257
 Search for a local minimum.
 Step number   3 out of a maximum of   27
 All quantities printed in internal units (Hartrees-Bohrs-Radians)
 Mixed Optimization -- RFO/linear search
 Update second derivatives using D2CorX and points    2    3
 The second derivative matrix:
                          R1        R2        R3        R4        R5
           R1           0.37068
           R2           0.00340   0.08617
           R3           0.00030  -0.00089   0.29530
           R4           0.00030  -0.00089  -0.00009   0.29530
           R5          -0.00039   0.00599  -0.00011  -0.00011   0.07283
           A1           0.00369  -0.01178  -0.00061  -0.00061  -0.00608
           A2          -0.00181   0.01005   0.00063   0.00063   0.00527
           A3          -0.00044   0.00491   0.00042   0.00042   0.00182
           A4           0.00061  -0.00209  -0.00025  -0.00025   0.00061
           A5          -0.00017   0.00084  -0.00012  -0.00012   0.00257
           A6          -0.00350   0.01097   0.00094   0.00094   0.00094
           A7          -0.00011   0.00042   0.00002   0.00002   0.00028
           A8           0.00024  -0.00087  -0.00004  -0.00004  -0.00057
           D1          -0.00202   0.00759   0.00032   0.00032   0.00514
           D2           0.00174  -0.00655  -0.00028  -0.00028  -0.00444
           D3           0.00282  -0.01064  -0.00044  -0.00044  -0.00718
           D4           0.00108  -0.00408  -0.00016  -0.00016  -0.00274
                          A1        A2        A3        A4        A5
           A1           0.15751
           A2           0.00100   0.15944
           A3           0.00104  -0.00075   0.15959
           A4          -0.00241   0.00129   0.00025   0.15992
           A5          -0.00243   0.00142   0.00008   0.00051   0.16126
           A6           0.00798  -0.00414  -0.00121   0.00140  -0.00024
           A7           0.00000   0.00002  -0.00002   0.00008   0.00011
           A8          -0.00001  -0.00005   0.00003  -0.00017  -0.00021
           D1          -0.00012   0.00025  -0.00056   0.00157   0.00203
           D2           0.00011  -0.00027   0.00043  -0.00133  -0.00173
           D3           0.00014  -0.00059   0.00054  -0.00209  -0.00274
           D4           0.00003  -0.00032   0.00011  -0.00076  -0.00100
                          A6        A7        A8        D1        D2
           A6           0.24219
           A7          -0.00023   0.00230
           A8           0.00048  -0.00001   0.00231
           D1          -0.00435   0.00006  -0.00013   0.00363
           D2           0.00370  -0.00005   0.00011  -0.00108   0.00331
           D3           0.00586  -0.00009   0.00018  -0.00173   0.00150
           D4           0.00216  -0.00003   0.00007  -0.00065   0.00056
                          D3        D4
           D3           0.00478
           D4           0.00091   0.00272
 ITU=  0  1  0
 Use linear search instead of GDIIS.
     Eigenvalues ---    0.00230   0.00230   0.04552   0.05381   0.07084
     Eigenvalues ---    0.08944   0.10298   0.16086   0.22104   0.29522
     Eigenvalues ---    0.29539   0.37075
 RFO step:  Lambda=-2.70032836D-03 EMin= 2.29729863D-03
 Quartic linear search produced a step of  0.00264.
 Iteration  1 RMS(Cart)=  0.10763172 RMS(Int)=  0.02052801
 Iteration  2 RMS(Cart)=  0.02629767 RMS(Int)=  0.00105937
 Iteration  3 RMS(Cart)=  0.00129718 RMS(Int)=  0.00049382
 Iteration  4 RMS(Cart)=  0.00000172 RMS(Int)=  0.00049382
 Iteration  5 RMS(Cart)=  0.00000000 RMS(Int)=  0.00049382
 ClnCor:  largest displacement from symmetrization is 2.09D-01 for atom     6.
          Exceeds limit of 1.00D-01 so symmetrization was rejected.
 Variable       Old X    -DE/DX   Delta X   Delta X   Delta X     New X
                                 (Linear)    (Quad)   (Total)
    R1        2.07397  -0.00527   0.00009  -0.01282  -0.01273   2.06124
    R2        2.32781  -0.00782  -0.00124  -0.09681  -0.09805   2.22976
    R3        3.31491  -0.00149  -0.00002  -0.00522  -0.00524   3.30967
    R4        3.31491  -0.00150  -0.00002  -0.00524  -0.00526   3.30966
    R5        3.15419   0.00399  -0.00088   0.04976   0.04888   3.20307
    A1        1.82598  -0.00165  -0.00015   0.00336   0.00318   1.82916
    A2        1.93559   0.00336   0.00004  -0.00452  -0.00574   1.92985
    A3        1.93559   0.00195   0.00004  -0.00522  -0.00606   1.92953
    A4        1.83559   0.00358  -0.00013   0.03254   0.03308   1.86867
    A5        1.83559   0.00461  -0.00013   0.03332   0.03350   1.86909
    A6        2.07274  -0.01065   0.00028  -0.04762  -0.04781   2.02493
    A7        3.15244   0.00099   0.00002   0.19653   0.19655   3.34899
    A8        3.11039  -0.00144  -0.00005  -0.28613  -0.28618   2.82420
    D1        1.96440   0.00149  -0.00023   0.01898   0.01868   1.98308
    D2       -1.96440  -0.00139   0.00023  -0.01907  -0.01876  -1.98315
    D3        2.27209  -0.00322   0.00032  -0.05806  -0.05699   2.21510
    D4       -2.04670  -0.00182   0.00009  -0.03899  -0.03823  -2.08493
         Item               Value     Threshold  Converged?
 Maximum Force            0.010647     0.000450     NO 
 RMS     Force            0.004168     0.000300     NO 
 Maximum Displacement     0.265287     0.001800     NO 
 RMS     Displacement     0.131107     0.001200     NO 
 Predicted change in Energy=-1.530554D-03
 GradGradGradGradGradGradGradGradGradGradGradGradGradGradGradGradGradGrad

                          Input orientation:                          
 ---------------------------------------------------------------------
 Center     Atomic      Atomic             Coordinates (Angstroms)
 Number     Number       Type             X           Y           Z
 ---------------------------------------------------------------------
      1          6           0       -3.687524   -0.725559   -0.084510
      2          1           0       -3.389452   -0.135411   -0.952057
      3         17           0       -1.049486   -1.425596    0.724295
      4          1           0       -2.680029   -1.172714    0.336512
      5         17           0       -4.685522   -2.078911   -0.574260
      6         17           0       -4.352967    0.307984    1.163032
 ---------------------------------------------------------------------
                    Distance matrix (angstroms):
                    1          2          3          4          5
     1  C    0.000000
     2  H    1.090761   0.000000
     3  Cl   2.846657   3.154389   0.000000
     4  H    1.179937   1.799914   1.694991   0.000000
     5  Cl   1.751404   2.366373   3.915842   2.381742   0.000000
     6  Cl   1.751396   2.366129   3.756431   2.382084   2.970865
                    6
     6  Cl   0.000000
 Stoichiometry    CH2Cl3(2)
 Framework group  C1[X(CH2Cl3)]
 Deg. of freedom    12
 Full point group                 C1      NOp   1
 Omega: Change in point group or standard orientation.

 Old FWG=CS   [SG(C1H2Cl1),X(Cl2)]
 New FWG=C01  [X(C1H2Cl3)]
 Largest Abelian subgroup         C1      NOp   1
 Largest concise Abelian subgroup C1      NOp   1
                         Standard orientation:                         
 ---------------------------------------------------------------------
 Center     Atomic      Atomic             Coordinates (Angstroms)
 Number     Number       Type             X           Y           Z
 ---------------------------------------------------------------------
      1          6           0       -0.402673    0.011808    0.459784
      2          1           0       -0.319604    0.024876    1.547299
      3         17           0        2.393434    0.144935   -0.057439
      4          1           0        0.703340    0.146250    0.071310
      5         17           0       -1.317271    1.394856   -0.104226
      6         17           0       -0.956616   -1.554025   -0.095823
 ---------------------------------------------------------------------
 Rotational constants (GHZ):      3.1787828      1.6773984      1.1260923
 Standard basis: 6-31G(d) (6D, 7F)
 There are    76 symmetry adapted basis functions of A   symmetry.
 Integral buffers will be    131072 words long.
 Raffenetti 2 integral format.
 Two-electron integral symmetry is turned on.
    76 basis functions,   192 primitive gaussians,    76 cartesian basis functions
    30 alpha electrons       29 beta electrons
       nuclear repulsion energy       241.0552858397 Hartrees.
 NAtoms=    6 NActive=    6 NUniq=    6 SFac= 1.00D+00 NAtFMM=   60 NAOKFM=F Big=F
 One-electron integrals computed using PRISM.
 NBasis=    76 RedAO= T  NBF=    76
 NBsUse=    76 1.00D-06 NBFU=    76
 Initial guess read from the read-write file.
 B after Tr=     0.000000    0.000000    0.000000
         Rot=    1.000000    0.000000    0.000000    0.000000 Ang=   0.00 deg.
 Initial guess orbital symmetries:
 Alpha Orbitals:
       Occupied  (A) (A) (A) (A) (A) (A) (A) (A) (A) (A) (A) (A)
                 (A) (A) (A) (A) (A) (A) (A) (A) (A) (A) (A) (A)
                 (A) (A) (A) (A) (A) (A)
       Virtual   (A) (A) (A) (A) (A) (A) (A) (A) (A) (A) (A) (A)
                 (A) (A) (A) (A) (A) (A) (A) (A) (A) (A) (A) (A)
                 (A) (A) (A) (A) (A) (A) (A) (A) (A) (A) (A) (A)
                 (A) (A) (A) (A) (A) (A) (A) (A) (A) (A)
 Beta  Orbitals:
       Occupied  (A) (A) (A) (A) (A) (A) (A) (A) (A) (A) (A) (A)
                 (A) (A) (A) (A) (A) (A) (A) (A) (A) (A) (A) (A)
                 (A) (A) (A) (A) (A)
       Virtual   (A) (A) (A) (A) (A) (A) (A) (A) (A) (A) (A) (A)
                 (A) (A) (A) (A) (A) (A) (A) (A) (A) (A) (A) (A)
                 (A) (A) (A) (A) (A) (A) (A) (A) (A) (A) (A) (A)
                 (A) (A) (A) (A) (A) (A) (A) (A) (A) (A) (A)
 Initial guess <Sx>= 0.0000 <Sy>= 0.0000 <Sz>= 0.5000 <S**2>= 0.7560 S= 0.5030
 Harris functional with IExCor=  402 diagonalized for initial guess.
 ExpMin= 1.43D-01 ExpMax= 2.52D+04 ExpMxC= 3.78D+03 IAcc=1 IRadAn=         1 AccDes= 0.00D+00
 HarFok:  IExCor=  402 AccDes= 0.00D+00 IRadAn=         1 IDoV= 1
 ScaDFX=  1.000000  1.000000  1.000000  1.000000
 FoFCou: FMM=F IPFlag=           0 FMFlag=      100000 FMFlg1=           0
         NFxFlg=           0 DoJE=T BraDBF=F KetDBF=T FulRan=T
         Omega=  0.000000  0.000000  1.000000  0.000000  0.000000 ICntrl=     500 IOpCl=  0
         NMat0=    1 NMatS0=    1 NMatT0=    0 NMatD0=    1 NMtDS0=    0 NMtDT0=    0
         I1Cent=           4 NGrid=           0.
 Petite list used in FoFCou.
 Requested convergence on RMS density matrix=1.00D-08 within 128 cycles.
 Requested convergence on MAX density matrix=1.00D-06.
 Requested convergence on             energy=1.00D-06.
 No special actions if energy rises.
 Keep R1 and R2 ints in memory in canonical form, NReq=9546585.
 Integral accuracy reduced to 1.0D-05 until final iterations.
 Initial convergence to 1.0D-05 achieved.  Increase integral accuracy.
 SCF Done:  E(UB3LYP) =  -1419.83058584     A.U. after   22 cycles
             Convg  =    0.3661D-08             -V/T =  2.0032
 <Sx>= 0.0000 <Sy>= 0.0000 <Sz>= 0.5000 <S**2>= 0.7540 S= 0.5020
 <L.S>= 0.000000000000E+00
 Annihilation of the first spin contaminant:
 S**2 before annihilation     0.7540,   after     0.7500
 Calling FoFJK, ICntrl=      2127 FMM=F ISym2X=0 I1Cent= 0 IOpClX= 1 NMat=1 NMatS=1 NMatT=0.
 ***** Axes restored to original set *****
 -------------------------------------------------------------------
 Center     Atomic                   Forces (Hartrees/Bohr)
 Number     Number              X              Y              Z
 -------------------------------------------------------------------
      1        6           0.002997271    0.001812666   -0.003401775
      2        1          -0.001474881   -0.000189795    0.000477009
      3       17           0.008862054   -0.002889635    0.002469240
      4        1          -0.005727516    0.002509831   -0.001198082
      5       17          -0.002441240   -0.002483709   -0.000346714
      6       17          -0.002215687    0.001240643    0.002000323
 -------------------------------------------------------------------
 Cartesian Forces:  Max     0.008862054 RMS     0.003184171

 GradGradGradGradGradGradGradGradGradGradGradGradGradGradGradGradGradGrad
 Berny optimization.
 Using GEDIIS/GDIIS optimizer.
 Internal  Forces:  Max     0.009521013 RMS     0.002986800
 Search for a local minimum.
 Step number   4 out of a maximum of   27
 All quantities printed in internal units (Hartrees-Bohrs-Radians)
 Mixed Optimization -- RFO/linear search
 Update second derivatives using D2CorX and points    3    4
 DE= -9.03D-04 DEPred=-1.53D-03 R= 5.90D-01
 SS=  1.41D+00  RLast= 3.78D-01 DXNew= 8.4853D-01 1.1334D+00
 Trust test= 5.90D-01 RLast= 3.78D-01 DXMaxT set to 8.49D-01
 The second derivative matrix:
                          R1        R2        R3        R4        R5
           R1           0.36432
           R2           0.00015   0.09655
           R3           0.00287   0.00935   0.30087
           R4           0.00244   0.00824   0.00500   0.29995
           R5           0.01500   0.03559   0.00977   0.00923   0.07484
           A1           0.00789  -0.00294   0.00265   0.00245  -0.00416
           A2          -0.00785  -0.00224  -0.00374  -0.00348   0.00327
           A3          -0.00546  -0.00453  -0.00266  -0.00250   0.00153
           A4           0.00912   0.00541  -0.00135  -0.00100  -0.01427
           A5           0.00843   0.00836  -0.00129  -0.00092  -0.01258
           A6          -0.02281  -0.00543   0.00390   0.00306   0.03582
           A7          -0.00531  -0.01394  -0.00656  -0.00606  -0.00831
           A8           0.00222   0.00583   0.00338   0.00310   0.00489
           D1          -0.00248   0.00611  -0.00041  -0.00035   0.00402
           D2           0.00173  -0.00631  -0.00009  -0.00011  -0.00398
           D3           0.00547  -0.00335   0.00288   0.00263  -0.00287
           D4           0.00373   0.00296   0.00297   0.00274   0.00110
                          A1        A2        A3        A4        A5
           A1           0.15846
           A2          -0.00013   0.16074
           A3           0.00052  -0.00025   0.15958
           A4          -0.00627   0.00696   0.00515   0.14937
           A5          -0.00637   0.00720   0.00507  -0.01018   0.15045
           A6           0.01708  -0.01746  -0.01269   0.02550   0.02416
           A7          -0.00309   0.00405   0.00259   0.00395   0.00408
           A8           0.00184  -0.00252  -0.00166  -0.00133  -0.00142
           D1          -0.00050   0.00076  -0.00022   0.00186   0.00233
           D2           0.00025  -0.00047   0.00029  -0.00126  -0.00166
           D3           0.00169  -0.00261  -0.00076  -0.00408  -0.00477
           D4           0.00144  -0.00214  -0.00105  -0.00282  -0.00311
                          A6        A7        A8        D1        D2
           A6           0.18716
           A7          -0.00961   0.00946
           A8           0.00341  -0.00392   0.00438
           D1          -0.00508   0.00089  -0.00057   0.00372
           D2           0.00355  -0.00030   0.00023  -0.00111   0.00332
           D3           0.01066  -0.00370   0.00216  -0.00215   0.00162
           D4           0.00711  -0.00340   0.00193  -0.00104   0.00068
                          D3        D4
           D3           0.00661
           D4           0.00260   0.00430
 ITU=  1  0  1  0
 Use linear search instead of GDIIS.
     Eigenvalues ---    0.00209   0.00632   0.03186   0.05326   0.05628
     Eigenvalues ---    0.09844   0.12033   0.15939   0.19042   0.29539
     Eigenvalues ---    0.30842   0.36684
 RFO step:  Lambda=-3.39832352D-03 EMin= 2.08884641D-03
 Quartic linear search produced a step of -0.25002.
 Iteration  1 RMS(Cart)=  0.10961914 RMS(Int)=  0.06635560
 Iteration  2 RMS(Cart)=  0.10120775 RMS(Int)=  0.01933101
 Iteration  3 RMS(Cart)=  0.03860211 RMS(Int)=  0.00143114
 Iteration  4 RMS(Cart)=  0.00111602 RMS(Int)=  0.00096048
 Iteration  5 RMS(Cart)=  0.00000032 RMS(Int)=  0.00096048
 Variable       Old X    -DE/DX   Delta X   Delta X   Delta X     New X
                                 (Linear)    (Quad)   (Total)
    R1        2.06124  -0.00089   0.00318  -0.02523  -0.02205   2.03919
    R2        2.22976   0.00335   0.02451  -0.13552  -0.11100   2.11876
    R3        3.30967   0.00336   0.00131  -0.00015   0.00116   3.31083
    R4        3.30966   0.00300   0.00131  -0.00111   0.00020   3.30986
    R5        3.20307   0.00952  -0.01222   0.18491   0.17269   3.37576
    A1        1.82916   0.00043  -0.00080   0.01397   0.01288   1.84204
    A2        1.92985   0.00069   0.00144  -0.00594  -0.00694   1.92291
    A3        1.92953   0.00029   0.00151  -0.00669  -0.00683   1.92270
    A4        1.86867   0.00006  -0.00827   0.05072   0.04378   1.91245
    A5        1.86909   0.00102  -0.00838   0.05851   0.05053   1.91962
    A6        2.02493  -0.00222   0.01195  -0.09457  -0.08334   1.94159
    A7        3.34899  -0.00413  -0.04914  -0.40992  -0.45906   2.88992
    A8        2.82420   0.00142   0.07155  -0.02906   0.04249   2.86670
    D1        1.98308   0.00088  -0.00467   0.04109   0.03622   2.01930
    D2       -1.98315  -0.00120   0.00469  -0.04494  -0.04020  -2.02335
    D3        2.21510  -0.00063   0.01425  -0.09326  -0.07750   2.13760
    D4       -2.08493   0.00057   0.00956  -0.04832  -0.03730  -2.12223
         Item               Value     Threshold  Converged?
 Maximum Force            0.009521     0.000450     NO 
 RMS     Force            0.002987     0.000300     NO 
 Maximum Displacement     0.545570     0.001800     NO 
 RMS     Displacement     0.232598     0.001200     NO 
 Predicted change in Energy=-2.246111D-03
 GradGradGradGradGradGradGradGradGradGradGradGradGradGradGradGradGradGrad

                          Input orientation:                          
 ---------------------------------------------------------------------
 Center     Atomic      Atomic             Coordinates (Angstroms)
 Number     Number       Type             X           Y           Z
 ---------------------------------------------------------------------
      1          6           0       -3.644942   -0.665974   -0.053437
      2          1           0       -3.429157   -0.092958   -0.941992
      3         17           0       -1.057972   -1.714299    0.615395
      4          1           0       -2.646708   -0.931439    0.382614
      5         17           0       -4.509957   -2.130349   -0.474052
      6         17           0       -4.556244    0.304812    1.084483
 ---------------------------------------------------------------------
                    Distance matrix (angstroms):
                    1          2          3          4          5
     1  C    0.000000
     2  H    1.079092   0.000000
     3  Cl   2.870320   3.267525   0.000000
     4  H    1.121198   1.752101   1.786376   0.000000
     5  Cl   1.752016   2.353308   3.643650   2.375491   0.000000
     6  Cl   1.751502   2.352689   4.066295   2.380602   2.891571
                    6
     6  Cl   0.000000
 Stoichiometry    CH2Cl3(2)
 Framework group  C1[X(CH2Cl3)]
 Deg. of freedom    12
 Full point group                 C1      NOp   1
 Largest Abelian subgroup         C1      NOp   1
 Largest concise Abelian subgroup C1      NOp   1
                         Standard orientation:                         
 ---------------------------------------------------------------------
 Center     Atomic      Atomic             Coordinates (Angstroms)
 Number     Number       Type             X           Y           Z
 ---------------------------------------------------------------------
      1          6           0       -0.396157   -0.054303    0.500934
      2          1           0       -0.405934   -0.062209    1.579953
      3         17           0        2.405727   -0.313314   -0.065715
      4          1           0        0.641086   -0.362835    0.207644
      5         17           0       -0.718353    1.561648   -0.094425
      6         17           0       -1.561387   -1.204166   -0.121814
 ---------------------------------------------------------------------
 Rotational constants (GHZ):      3.4590394      1.6061113      1.1287508
 Standard basis: 6-31G(d) (6D, 7F)
 There are    76 symmetry adapted basis functions of A   symmetry.
 Integral buffers will be    131072 words long.
 Raffenetti 2 integral format.
 Two-electron integral symmetry is turned on.
    76 basis functions,   192 primitive gaussians,    76 cartesian basis functions
    30 alpha electrons       29 beta electrons
       nuclear repulsion energy       241.9784326104 Hartrees.
 NAtoms=    6 NActive=    6 NUniq=    6 SFac= 1.00D+00 NAtFMM=   60 NAOKFM=F Big=F
 One-electron integrals computed using PRISM.
 NBasis=    76 RedAO= T  NBF=    76
 NBsUse=    76 1.00D-06 NBFU=    76
 Initial guess read from the read-write file.
 B after Tr=     0.000000    0.000000    0.000000
         Rot=    1.000000    0.000000    0.000000    0.000000 Ang=   0.00 deg.
 Initial guess orbital symmetries:
 Alpha Orbitals:
       Occupied  (A) (A) (A) (A) (A) (A) (A) (A) (A) (A) (A) (A)
                 (A) (A) (A) (A) (A) (A) (A) (A) (A) (A) (A) (A)
                 (A) (A) (A) (A) (A) (A)
       Virtual   (A) (A) (A) (A) (A) (A) (A) (A) (A) (A) (A) (A)
                 (A) (A) (A) (A) (A) (A) (A) (A) (A) (A) (A) (A)
                 (A) (A) (A) (A) (A) (A) (A) (A) (A) (A) (A) (A)
                 (A) (A) (A) (A) (A) (A) (A) (A) (A) (A)
 Beta  Orbitals:
       Occupied  (A) (A) (A) (A) (A) (A) (A) (A) (A) (A) (A) (A)
                 (A) (A) (A) (A) (A) (A) (A) (A) (A) (A) (A) (A)
                 (A) (A) (A) (A) (A)
       Virtual   (A) (A) (A) (A) (A) (A) (A) (A) (A) (A) (A) (A)
                 (A) (A) (A) (A) (A) (A) (A) (A) (A) (A) (A) (A)
                 (A) (A) (A) (A) (A) (A) (A) (A) (A) (A) (A) (A)
                 (A) (A) (A) (A) (A) (A) (A) (A) (A) (A) (A)
 Initial guess <Sx>= 0.0000 <Sy>= 0.0000 <Sz>= 0.5000 <S**2>= 0.7542 S= 0.5021
 Harris functional with IExCor=  402 diagonalized for initial guess.
 ExpMin= 1.43D-01 ExpMax= 2.52D+04 ExpMxC= 3.78D+03 IAcc=1 IRadAn=         1 AccDes= 0.00D+00
 HarFok:  IExCor=  402 AccDes= 0.00D+00 IRadAn=         1 IDoV= 1
 ScaDFX=  1.000000  1.000000  1.000000  1.000000
 FoFCou: FMM=F IPFlag=           0 FMFlag=      100000 FMFlg1=           0
         NFxFlg=           0 DoJE=T BraDBF=F KetDBF=T FulRan=T
         Omega=  0.000000  0.000000  1.000000  0.000000  0.000000 ICntrl=     500 IOpCl=  0
         NMat0=    1 NMatS0=    1 NMatT0=    0 NMatD0=    1 NMtDS0=    0 NMtDT0=    0
         I1Cent=           4 NGrid=           0.
 Petite list used in FoFCou.
 Requested convergence on RMS density matrix=1.00D-08 within 128 cycles.
 Requested convergence on MAX density matrix=1.00D-06.
 Requested convergence on             energy=1.00D-06.
 No special actions if energy rises.
 Keep R1 and R2 ints in memory in canonical form, NReq=9546585.
 Integral accuracy reduced to 1.0D-05 until final iterations.
 Initial convergence to 1.0D-05 achieved.  Increase integral accuracy.
 SCF Done:  E(UB3LYP) =  -1419.82939510     A.U. after   23 cycles
             Convg  =    0.6923D-08             -V/T =  2.0031
 <Sx>= 0.0000 <Sy>= 0.0000 <Sz>= 0.5000 <S**2>= 0.7534 S= 0.5017
 <L.S>= 0.000000000000E+00
 Annihilation of the first spin contaminant:
 S**2 before annihilation     0.7534,   after     0.7500
 Calling FoFJK, ICntrl=      2127 FMM=F ISym2X=0 I1Cent= 0 IOpClX= 1 NMat=1 NMatS=1 NMatT=0.
 ***** Axes restored to original set *****
 -------------------------------------------------------------------
 Center     Atomic                   Forces (Hartrees/Bohr)
 Number     Number              X              Y              Z
 -------------------------------------------------------------------
      1        6          -0.017331459    0.003042964   -0.005234584
      2        1           0.000722917    0.004390840   -0.006723543
      3       17           0.009946371   -0.002666038    0.002590436
      4        1           0.004659307   -0.004430690    0.006883663
      5       17           0.000428065   -0.008652149   -0.004731263
      6       17           0.001574799    0.008315073    0.007215291
 -------------------------------------------------------------------
 Cartesian Forces:  Max     0.017331459 RMS     0.006768514

 GradGradGradGradGradGradGradGradGradGradGradGradGradGradGradGradGradGrad
 Berny optimization.
 Using GEDIIS/GDIIS optimizer.
 Internal  Forces:  Max     0.018451965 RMS     0.007922657
 Search for a local minimum.
 Step number   5 out of a maximum of   27
 All quantities printed in internal units (Hartrees-Bohrs-Radians)
 Mixed Optimization -- RFO/linear search
 Update second derivatives using D2CorX and points    3    5    4
 DE=  1.19D-03 DEPred=-2.25D-03 R=-5.30D-01
 Trust test=-5.30D-01 RLast= 5.26D-01 DXMaxT set to 4.24D-01
 The second derivative matrix:
                          R1        R2        R3        R4        R5
           R1           0.37235
           R2           0.01516   0.11486
           R3           0.00818   0.01204   0.29901
           R4           0.00831   0.01257   0.00395   0.29970
           R5           0.01814   0.02440  -0.00082  -0.00014   0.04610
           A1           0.01085   0.00070   0.00321   0.00333  -0.00631
           A2          -0.01274  -0.01119  -0.00684  -0.00694   0.00165
           A3          -0.00773  -0.00869  -0.00409  -0.00410   0.00078
           A4           0.00595   0.00164  -0.00185  -0.00185  -0.01173
           A5          -0.00059  -0.00769  -0.00665  -0.00698  -0.01471
           A6          -0.00784   0.02448   0.01524   0.01535   0.04509
           A7           0.00509   0.00882   0.00280   0.00384   0.00166
           A8           0.00259   0.00362   0.00147   0.00139  -0.00004
           D1          -0.00346   0.00327  -0.00181  -0.00176   0.00185
           D2           0.00483   0.00013   0.00244   0.00261  -0.00161
           D3           0.00825   0.00224   0.00502   0.00494  -0.00109
           D4           0.00342   0.00212   0.00258   0.00234   0.00053
                          A1        A2        A3        A4        A5
           A1           0.15918
           A2          -0.00189   0.16370
           A3          -0.00030   0.00113   0.16022
           A4          -0.00702   0.00885   0.00603   0.15015
           A5          -0.00954   0.01267   0.00761  -0.00679   0.16051
           A6           0.02298  -0.02660  -0.01694   0.01916   0.00719
           A7           0.00139  -0.00233  -0.00038  -0.00089  -0.00787
           A8           0.00142  -0.00269  -0.00174  -0.00083  -0.00159
           D1          -0.00106   0.00137   0.00007   0.00247   0.00352
           D2           0.00152  -0.00236  -0.00060  -0.00263  -0.00519
           D3           0.00279  -0.00431  -0.00156  -0.00527  -0.00793
           D4           0.00128  -0.00195  -0.00096  -0.00264  -0.00274
                          A6        A7        A8        D1        D2
           A6           0.21468
           A7           0.00908   0.02174
           A8           0.00466  -0.00246   0.00354
           D1          -0.00670  -0.00002  -0.00092   0.00373
           D2           0.00918   0.00347   0.00057  -0.00141   0.00447
           D3           0.01577  -0.00024   0.00240  -0.00245   0.00267
           D4           0.00659  -0.00371   0.00184  -0.00103   0.00058
                          D3        D4
           D3           0.00755
           D4           0.00251   0.00430
 ITU= -1  1  0  1  0
 Use linear search instead of GDIIS.
 Quartic linear search produced a step of -0.62318.
 Iteration  1 RMS(Cart)=  0.10498237 RMS(Int)=  0.02253368
 Iteration  2 RMS(Cart)=  0.04322449 RMS(Int)=  0.00145937
 Iteration  3 RMS(Cart)=  0.00153078 RMS(Int)=  0.00025287
 Iteration  4 RMS(Cart)=  0.00000041 RMS(Int)=  0.00025287
 Variable       Old X    -DE/DX   Delta X   Delta X   Delta X     New X
                                 (Linear)    (Quad)   (Total)
    R1        2.03919   0.00801   0.01374   0.00000   0.01374   2.05293
    R2        2.11876   0.01845   0.06917   0.00000   0.06917   2.18793
    R3        3.31083   0.00811  -0.00072   0.00000  -0.00072   3.31011
    R4        3.30986   0.00848  -0.00013   0.00000  -0.00013   3.30973
    R5        3.37576   0.01035  -0.10762   0.00000  -0.10762   3.26814
    A1        1.84204   0.00341  -0.00803   0.00000  -0.00797   1.83408
    A2        1.92291  -0.00469   0.00432   0.00000   0.00496   1.92787
    A3        1.92270  -0.00221   0.00426   0.00000   0.00471   1.92741
    A4        1.91245  -0.00312  -0.02728   0.00000  -0.02764   1.88482
    A5        1.91962  -0.00885  -0.03149   0.00000  -0.03162   1.88801
    A6        1.94159   0.01467   0.05194   0.00000   0.05215   1.99374
    A7        2.88992   0.00789   0.28608   0.00000   0.28608   3.17600
    A8        2.86670   0.00137  -0.02648   0.00000  -0.02648   2.84022
    D1        2.01930  -0.00036  -0.02257   0.00000  -0.02252   1.99678
    D2       -2.02335   0.00232   0.02505   0.00000   0.02504  -1.99831
    D3        2.13760   0.00251   0.04830   0.00000   0.04792   2.18552
    D4       -2.12223   0.00018   0.02325   0.00000   0.02288  -2.09935
         Item               Value     Threshold  Converged?
 Maximum Force            0.018452     0.000450     NO 
 RMS     Force            0.007923     0.000300     NO 
 Maximum Displacement     0.340267     0.001800     NO 
 RMS     Displacement     0.145638     0.001200     NO 
 Predicted change in Energy=-6.902848D-04
 GradGradGradGradGradGradGradGradGradGradGradGradGradGradGradGradGradGrad

                          Input orientation:                          
 ---------------------------------------------------------------------
 Center     Atomic      Atomic             Coordinates (Angstroms)
 Number     Number       Type             X           Y           Z
 ---------------------------------------------------------------------
      1          6           0       -3.675311   -0.704636   -0.073488
      2          1           0       -3.405620   -0.119608   -0.948243
      3         17           0       -1.032602   -1.534237    0.685619
      4          1           0       -2.669658   -1.083356    0.357487
      5         17           0       -4.624345   -2.101139   -0.539685
      6         17           0       -4.437445    0.312769    1.131322
 ---------------------------------------------------------------------
[...]
     1 C(13)  Bbb    -0.0814   -10.924    -3.898    -3.644  0.4028  0.0001  0.9153
              Bcc     0.1642    22.033     7.862     7.350  0.9153 -0.0014 -0.4028
 
              Baa    -0.0101    -5.391    -1.924    -1.798  0.0009  1.0000  0.0000
     2 H(1)   Bbb    -0.0007    -0.381    -0.136    -0.127  0.9687 -0.0009  0.2484
              Bcc     0.0108     5.772     2.060     1.925 -0.2484  0.0002  0.9687
 
              Baa    -2.5092  -131.328   -46.861   -43.806 -0.0014  1.0000 -0.0079
     3 Cl(35) Bbb    -2.5091  -131.318   -46.858   -43.803  0.1636  0.0081  0.9865
              Bcc     5.0183   262.646    93.719    87.609  0.9865  0.0001 -0.1636
 
              Baa    -0.0400   -21.325    -7.609    -7.113 -0.0014  0.9999 -0.0115
     4 H(1)   Bbb    -0.0392   -20.916    -7.463    -6.977  0.1902  0.0116  0.9817
              Bcc     0.0792    42.241    15.073    14.090  0.9817 -0.0009 -0.1902
 
              Baa    -0.1874    -9.809    -3.500    -3.272 -0.0565  0.8463 -0.5298
     5 Cl(35) Bbb    -0.1526    -7.987    -2.850    -2.664  0.4456  0.4962  0.7451
              Bcc     0.3400    17.797     6.350     5.936  0.8935 -0.1940 -0.4051
 
              Baa    -0.1878    -9.829    -3.507    -3.279  0.0593  0.8460  0.5299
     6 Cl(35) Bbb    -0.1530    -8.006    -2.857    -2.671  0.4432 -0.4980  0.7454
              Bcc     0.3408    17.835     6.364     5.949  0.8945  0.1907 -0.4045
 

 ---------------------------------------------------------------------------------

 Calling FoFJK, ICntrl=    100127 FMM=F ISym2X=0 I1Cent= 0 IOpClX= 1 NMat=1 NMatS=1 NMatT=0.
 Full mass-weighted force constant matrix:
 Low frequencies ---   -7.5871   -1.5514    0.0030    0.0063    0.0076    4.4705
 Low frequencies ---   46.2818   65.8853  133.8130
 Harmonic frequencies (cm**-1), IR intensities (KM/Mole), Raman scattering
 activities (A**4/AMU), depolarization ratios for plane and unpolarized
 incident light, reduced masses (AMU), force constants (mDyne/A),
 and normal coordinates:
                     1                      2                      3
                     A                      A                      A
 Frequencies --    46.2652                65.8830               133.8113
 Red. masses --    18.3261                17.2486                 2.5427
 Frc consts  --     0.0231                 0.0441                 0.0268
 IR Inten    --     0.8506                11.6774                 5.5448
  Atom  AN      X      Y      Z        X      Y      Z        X      Y      Z
     1   6     0.00  -0.30   0.00    -0.02   0.00  -0.23    -0.20   0.00   0.26
     2   1     0.00  -0.29   0.00     0.29   0.00  -0.22    -0.63   0.00   0.25
     3  17     0.00   0.34   0.00     0.55   0.00   0.03     0.08   0.00  -0.04
     4   1     0.00  -0.59   0.00    -0.18   0.00  -0.57    -0.09   0.00   0.65
     5  17     0.41  -0.11  -0.02    -0.28   0.00   0.03     0.01   0.00  -0.03
     6  17    -0.41  -0.11   0.02    -0.27   0.00   0.03     0.01   0.00  -0.03
                     4                      5                      6
                     A                      A                      A
 Frequencies --   291.3509               722.1606               757.7003
 Red. masses --    18.7288                 7.5473                 8.2165
 Frc consts  --     0.9367                 2.3191                 2.7793
 IR Inten    --     1.8185                45.7596               169.4846
  Atom  AN      X      Y      Z        X      Y      Z        X      Y      Z
     1   6    -0.32   0.00  -0.24     0.50   0.00   0.40     0.00   0.70   0.00
     2   1    -0.38   0.00  -0.25     0.44   0.00   0.40     0.00   0.50   0.00
     3  17     0.01   0.00   0.00    -0.01   0.00   0.00     0.00   0.00   0.00
     4   1    -0.35   0.00  -0.21     0.39   0.00   0.15     0.00   0.45   0.00
     5  17     0.06   0.48   0.05    -0.09   0.12  -0.08     0.07  -0.13   0.06
     6  17     0.06  -0.48   0.05    -0.09  -0.12  -0.08    -0.07  -0.13  -0.06
                     7                      8                      9
                     A                      A                      A
 Frequencies --   903.6231              1157.6578              1293.4185
 Red. masses --     1.3762                 1.0216                 1.1091
 Frc consts  --     0.6621                 0.8067                 1.0932
 IR Inten    --     2.7362                 0.2152                27.4851
  Atom  AN      X      Y      Z        X      Y      Z        X      Y      Z
     1   6    -0.12   0.00   0.13     0.00  -0.02   0.00     0.00  -0.09   0.00
     2   1     0.63   0.00   0.15     0.00  -0.52   0.00     0.00   0.86   0.00
     3  17     0.00   0.00   0.00     0.00   0.00   0.00     0.00   0.00   0.00
     4   1    -0.38   0.00  -0.64     0.00   0.85   0.00     0.00   0.50   0.00
     5  17     0.01   0.00  -0.02     0.01   0.00  -0.01     0.01   0.00   0.01
     6  17     0.01   0.00  -0.02    -0.01   0.00   0.01    -0.01   0.00  -0.01
                    10                     11                     12
                     A                      A                      A
 Frequencies --  1393.5144              2704.8880              3182.3217
 Red. masses --     1.0766                 1.0766                 1.0889
 Frc consts  --     1.2318                 4.6409                 6.4974
 IR Inten    --   124.2523              1673.9018                 0.4508
  Atom  AN      X      Y      Z        X      Y      Z        X      Y      Z
     1   6    -0.07   0.00  -0.04    -0.08   0.00   0.02     0.01   0.00  -0.09
     2   1     0.73   0.00   0.00    -0.05   0.00   0.08    -0.03   0.00   0.99
     3  17     0.00   0.00   0.00     0.00   0.00   0.00     0.00   0.00   0.00
     4   1     0.23   0.00   0.64     0.92   0.00  -0.36    -0.06   0.00   0.01
     5  17     0.00   0.00   0.00     0.00   0.00   0.00     0.00   0.00   0.00
     6  17     0.00   0.00   0.00     0.00   0.00   0.00     0.00   0.00   0.00

 -------------------
 - Thermochemistry -
 -------------------
 Temperature   298.150 Kelvin.  Pressure   1.00000 Atm.
 Atom     1 has atomic number  6 and mass  12.00000
 Atom     2 has atomic number  1 and mass   1.00783
 Atom     3 has atomic number 17 and mass  34.96885
 Atom     4 has atomic number  1 and mass   1.00783
 Atom     5 has atomic number 17 and mass  34.96885
 Atom     6 has atomic number 17 and mass  34.96885
 Molecular mass:   118.92221 amu.
 Principal axes and moments of inertia in atomic units:
                           1         2         3
     Eigenvalues --   576.790721296.705341828.91946
           X            1.00000  -0.00001  -0.00235
           Y            0.00001   1.00000  -0.00001
           Z            0.00235   0.00001   1.00000
 This molecule is an asymmetric top.
 Rotational symmetry number  1.
 Warning -- assumption of classical behavior for rotation
           may cause significant error
 Rotational temperatures (Kelvin)      0.15017     0.06680     0.04736
 Rotational constants (GHZ):           3.12894     1.39179     0.98678
 Zero-point vibrational energy      75679.3 (Joules/Mol)
                                   18.08779 (Kcal/Mol)
 Warning -- explicit consideration of   4 degrees of freedom as
           vibrations may cause significant error
 Vibrational temperatures:     66.57    94.79   192.52   419.19  1039.03
          (Kelvin)           1090.16  1300.11  1665.61  1860.94  2004.95
                             3891.73  4578.65
 
 Zero-point correction=                           0.028825 (Hartree/Particle)
 Thermal correction to Energy=                    0.034693
 Thermal correction to Enthalpy=                  0.035637
 Thermal correction to Gibbs Free Energy=        -0.004595
 Sum of electronic and zero-point Energies=          -1419.804680
 Sum of electronic and thermal Energies=             -1419.798812
 Sum of electronic and thermal Enthalpies=           -1419.797868
 Sum of electronic and thermal Free Energies=        -1419.838100
 
                     E (Thermal)             CV                S
                      KCal/Mol        Cal/Mol-Kelvin    Cal/Mol-Kelvin
 Total                   21.770             16.021             84.676
 Electronic               0.000              0.000              1.377
 Translational            0.889              2.981             40.235
 Rotational               0.889              2.981             28.705
 Vibrational             19.993             10.059             14.359
 Vibration     1          0.595              1.979              4.971
 Vibration     2          0.597              1.971              4.273
 Vibration     3          0.613              1.920              2.891
 Vibration     4          0.687              1.690              1.466
                       Q            Log10(Q)             Ln(Q)
 Total Bot       0.129931D+03          2.113714          4.867005
 Total V=0       0.235582D+16         15.372141         35.395664
 Vib (Bot)       0.304411D-11        -11.516540        -26.517812
 Vib (Bot)    1  0.446977D+01          0.650285          1.497337
 Vib (Bot)    2  0.313214D+01          0.495841          1.141716
 Vib (Bot)    3  0.152205D+01          0.182430          0.420061
 Vib (Bot)    4  0.655883D+00         -0.183173         -0.421772
 Vib (V=0)       0.551936D+02          1.741888          4.010846
 Vib (V=0)    1  0.499765D+01          0.698766          1.608968
 Vib (V=0)    2  0.367180D+01          0.564879          1.300681
 Vib (V=0)    3  0.210208D+01          0.322648          0.742925
 Vib (V=0)    4  0.132473D+01          0.122128          0.281210
 Electronic      0.200000D+01          0.301030          0.693147
 Translational   0.509741D+08          7.707350         17.746828
 Rotational      0.418672D+06          5.621873         12.944842
 ***** Axes restored to original set *****
 -------------------------------------------------------------------
 Center     Atomic                   Forces (Hartrees/Bohr)
 Number     Number              X              Y              Z
 -------------------------------------------------------------------
      1        6          -0.000078324   -0.000023718    0.000018276
      2        1           0.000041966    0.000018786   -0.000021968
      3       17           0.000008147   -0.000012680    0.000025071
      4        1           0.000005469   -0.000009760   -0.000002100
      5       17           0.000013687    0.000022361   -0.000003953
      6       17           0.000009055    0.000005011   -0.000015325
 -------------------------------------------------------------------
 Cartesian Forces:  Max     0.000078324 RMS     0.000025449

 GradGradGradGradGradGradGradGradGradGradGradGradGradGradGradGradGradGrad
 Berny optimization.
 Internal  Forces:  Max     0.000032426 RMS     0.000014600
 Search for a local minimum.
 Step number   1 out of a maximum of    2
 All quantities printed in internal units (Hartrees-Bohrs-Radians)
 Second derivative matrix not updated -- analytic derivatives used.
 The second derivative matrix:
                          R1        R2        R3        R4        R5
           R1           0.35641
           R2           0.00216   0.29339
           R3           0.00464   0.01040   0.21428
           R4           0.00461   0.01043   0.03072   0.21436
           R5          -0.00001   0.02183  -0.00452  -0.00449   0.00770
           A1           0.00402   0.00479  -0.00515  -0.00910  -0.00092
           A2          -0.00103  -0.00150   0.01193  -0.01617   0.00026
           A3          -0.00100  -0.00404  -0.01464   0.01455   0.00136
           A4          -0.00166   0.00059   0.01077  -0.01532  -0.00055
           A5          -0.00255   0.00144  -0.01459   0.01218  -0.00141
           A6           0.00240  -0.00081   0.01100   0.01287   0.00111
           A7           0.00035  -0.00008  -0.00059   0.00017  -0.00040
           A8          -0.00084   0.00065   0.00024   0.00050   0.00102
           D1           0.00329   0.00522   0.00645  -0.02830  -0.00126
           D2          -0.00281  -0.00431   0.02235  -0.00397   0.00115
           D3          -0.00043  -0.00556   0.01215  -0.00106   0.00214
           D4           0.00238  -0.00125  -0.01021   0.00290   0.00099
                          A1        A2        A3        A4        A5
           A1           0.01887
           A2          -0.00906   0.05316
           A3          -0.01385  -0.02553   0.08956
           A4          -0.00855   0.00388   0.02671   0.04918
           A5          -0.01446   0.02777  -0.03292  -0.02563   0.08766
           A6           0.02759  -0.04942  -0.04485  -0.04506  -0.04117
           A7          -0.00018  -0.00078   0.00083   0.00394  -0.00416
           A8           0.00090  -0.00011   0.00079   0.00044  -0.00232
           D1           0.01270   0.02040  -0.01536   0.01967  -0.01653
           D2          -0.00675   0.00906  -0.01379   0.01006  -0.01427
           D3          -0.00296   0.01534   0.00304  -0.00627  -0.01747
           D4           0.00379   0.00629   0.01684  -0.01634  -0.00321
                          A6        A7        A8        D1        D2
           A6           0.15080
           A7           0.00033   0.01000
           A8           0.00031   0.00025   0.00374
           D1          -0.01952   0.00158   0.00126   0.03736
           D2           0.01483   0.00211  -0.00019   0.00258   0.02362
           D3           0.00722  -0.00016   0.00068   0.00131   0.01173
           D4          -0.00761  -0.00227   0.00086  -0.00127  -0.01189
                          D3        D4
           D3           0.02728
           D4           0.01555   0.02745
 ITU=  0
     Eigenvalues ---    0.00310   0.00570   0.00944   0.04054   0.06229
     Eigenvalues ---    0.07116   0.14969   0.20662   0.20810   0.25199
     Eigenvalues ---    0.29896   0.35720
 Angle between quadratic step and forces=  62.03 degrees.
 Linear search not attempted -- first point.
 Iteration  1 RMS(Cart)=  0.00146070 RMS(Int)=  0.00000131
 Iteration  2 RMS(Cart)=  0.00000259 RMS(Int)=  0.00000000
 Iteration  3 RMS(Cart)=  0.00000000 RMS(Int)=  0.00000000
 Variable       Old X    -DE/DX   Delta X   Delta X   Delta X     New X
                                 (Linear)    (Quad)   (Total)
    R1        2.05695   0.00003   0.00000   0.00009   0.00009   2.05704
    R2        2.10904   0.00002   0.00000  -0.00011  -0.00011   2.10893
    R3        3.35355  -0.00002   0.00000  -0.00007  -0.00007   3.35349
    R4        3.35348  -0.00001   0.00000   0.00001   0.00001   3.35348
    R5        3.93407   0.00002   0.00000   0.00275   0.00275   3.93682
    A1        1.90353  -0.00001   0.00000  -0.00017  -0.00017   1.90336
    A2        1.90512   0.00000   0.00000   0.00009   0.00009   1.90521
    A3        1.90524   0.00000   0.00000  -0.00002  -0.00002   1.90521
    A4        1.87744   0.00000   0.00000  -0.00001  -0.00001   1.87744
    A5        1.87739   0.00000   0.00000   0.00005   0.00005   1.87743
    A6        1.99326   0.00001   0.00000   0.00006   0.00006   1.99332
    A7        3.22442   0.00002   0.00000   0.00225   0.00225   3.22666
    A8        2.83596   0.00000   0.00000  -0.00167  -0.00167   2.83429
    D1        2.06312  -0.00001   0.00000  -0.00016  -0.00016   2.06296
    D2       -2.06315   0.00002   0.00000   0.00019   0.00019  -2.06296
    D3        2.13777   0.00001   0.00000   0.00013   0.00013   2.13790
    D4       -2.08227  -0.00001   0.00000  -0.00006  -0.00006  -2.08232
         Item               Value     Threshold  Converged?
 Maximum Force            0.000032     0.000450     YES
 RMS     Force            0.000015     0.000300     YES
 Maximum Displacement     0.002674     0.001800     NO 
 RMS     Displacement     0.001462     0.001200     NO 
 Predicted change in Energy=-5.572446D-08
 GradGradGradGradGradGradGradGradGradGradGradGradGradGradGradGradGradGrad

 1\1\GINC-STUDENT-THINKCENTRE-M93P\Freq\UB3LYP\6-31G(d)\C1H2Cl3(2)\STUD
 ENT\23-Feb-2021\0\\#N Geom=AllCheck Guess=TCheck SCRF=Check GenChk UB3
 LYP/6-31G(d) Freq\\reaction\\0,2\C,-3.7018946727,-0.6979800295,-0.0923
 114691\H,-3.4774262826,-0.0991184104,-0.9731016547\Cl,-0.7751700038,-1
 .5837159457,0.7790322942\H,-2.7479155962,-1.0871403032,0.3367064616\Cl
 ,-4.6827013002,-2.0964709502,-0.5734890927\Cl,-4.4598723729,0.33421939
 33,1.1361749924\\Version=EM64L-G09RevC.01\State=2-A\HF=-1419.8335046\S
 2=0.752754\S2-1=0.\S2A=0.750005\RMSD=2.121e-09\RMSF=2.545e-05\ZeroPoin
 t=0.0288247\Thermal=0.0346929\Dipole=-0.1467327,0.2990096,-0.4044871\D
 ipoleDeriv=1.6927982,-0.1829358,0.2248244,-0.1146028,1.0681359,0.54324
 87,0.1306737,0.5514955,0.6379139,-0.1515922,0.0201638,-0.0154276,-0.00
 55086,-0.0300803,-0.0314466,0.0207447,-0.0347305,-0.0059416,0.3920951,
 -0.1136718,0.094746,-0.1319697,-0.0815149,-0.0281614,0.1198345,-0.0303
 772,-0.0862683,-1.1162031,0.2603816,-0.2258176,0.3522326,-0.0729998,0.
 0248828,-0.3565989,0.0371373,-0.0284204,-0.4571705,-0.2070421,-0.19408
 24,-0.3657727,-0.4443343,-0.2960193,-0.1687384,-0.1485994,-0.2071372,-
 0.3599275,0.2231043,0.1157572,0.2656211,-0.4392067,-0.2125042,0.254084
 4,-0.3749256,-0.3101465\Polar=104.8213052,-13.8430307,47.7031708,12.80
 19524,9.5692879,37.8440088\PG=C01 [X(C1H2Cl3)]\NImag=0\\0.38295895,-0.
 01755482,0.35425348,0.00871388,-0.13357352,0.44752040,-0.05168183,-0.0
 2929678,0.04354443,0.05844989,-0.03009704,-0.13235339,0.13918966,0.032
 96013,0.14855632,0.04468306,0.13908520,-0.24081167,-0.04701960,-0.1341
 0908,0.25407961,-0.02703181,0.00720108,-0.00678902,0.00276402,-0.00044
 378,0.00027761,0.00674252,0.00681582,-0.00252764,0.00186326,-0.0004979
 8,0.00023730,-0.00019736,-0.00177236,0.00111392,-0.00615387,0.00178952
 ,-0.00233330,0.00034562,-0.00020295,0.00029643,0.00171553,-0.00046400,
 0.00105596,-0.17273114,0.06586375,-0.07516310,0.00112779,-0.00111377,0
 .00185577,0.01146478,-0.00295526,0.00258369,0.19224265,0.06256559,-0.0
 6374761,0.03862239,0.01503869,-0.00308498,0.00697727,-0.00485449,0.000
 56365,-0.00097794,-0.06526750,0.07863561,-0.07056529,0.03821634,-0.075
 98434,-0.02110235,0.00908175,-0.00696182,0.00532879,-0.00124326,0.0004
 7219,0.07455683,-0.02962750,0.08426338,-0.07276040,-0.04862388,-0.0073
 3711,-0.00706065,-0.01062438,-0.00673431,0.00325238,-0.00110111,0.0006
 2417,-0.01891962,-0.02268120,-0.00716400,0.08535881,-0.05358474,-0.096
 49329,-0.00562979,-0.01897252,-0.01724398,-0.01138393,0.00263709,-0.00
 019032,0.00050370,-0.01030705,-0.00311218,-0.00313377,0.08265253,0.142
 28011,-0.01663629,-0.01676096,-0.03847706,0.00728130,0.00857652,0.0089
 9208,0.00161434,-0.00052593,0.00052055,-0.01087744,-0.01069666,-0.0010
 8990,0.02475973,0.04109021,0.03922710,-0.05875377,0.02241065,0.0370309
 3,-0.00359923,0.00931885,0.00693747,0.00280811,-0.00048910,0.00088486,
 -0.01318447,0.01519892,0.01894601,0.01012949,-0.00242531,-0.00614164,0
 .06259987,0.03185520,-0.05913155,-0.04047199,0.00076847,0.00388873,-0.
 00037210,-0.00276754,0.00080309,-0.00064832,0.01377982,-0.00925448,-0.
 01329355,0.00037805,-0.02524032,-0.02168317,-0.04401400,0.08893453,0.0
 3995851,-0.02875658,-0.08991403,0.01695059,-0.02253589,-0.01559463,-0.
 00214725,0.00056729,-0.00001183,0.00704426,-0.00429755,-0.00069950,-0.
 00414848,-0.02144641,-0.00917277,-0.05765764,0.07646914,0.11539275\\0.
 00007832,0.00002372,-0.00001828,-0.00004197,-0.00001879,0.00002197,-0.
 00000815,0.00001268,-0.00002507,-0.00000547,0.00000976,0.00000210,-0.0
 0001369,-0.00002236,0.00000395,-0.00000905,-0.00000501,0.00001533\\\@


 CLIMB THE MOUNTAINS AND GET THEIR GOOD TIDINGS.
 NATURE'S PEACE WILL FLOW INTO YOU AS SUNSHINE FLOWS INTO TREES.
 THE WINDS WILL BLOW THEIR OWN FRESHNESS INTO YOU, 
 AND CARES WILL DROP OFF LIKE AUTUMN LEAVES.

                                         -- JOHN MUIR
 Job cpu time:  0 days  0 hours  0 minutes 40.2 seconds.
 File lengths (MBytes):  RWF=     16 Int=      0 D2E=      0 Chk=      2 Scr=      1
 Normal termination of Gaussian 09 at Tue Feb 23 15:32:03 2021.
