 Entering Gaussian System, Link 0=g09
 Input=rupdate.com
 Output=rupdate.log
 Initial command:
 /home/student/g09/l1.exe /home/student/badal/Gau-3457.inp -scrdir=/home/student/badal/
 Entering Link 1 = /home/student/g09/l1.exe PID=      3459.
  
 Copyright (c) 1988,1990,1992,1993,1995,1998,2003,2009,2011,
            Gaussian, Inc.  All Rights Reserved.
  
 This is part of the Gaussian(R) 09 program.  It is based on
 the Gaussian(R) 03 system (copyright 2003, Gaussian, Inc.),
 the Gaussian(R) 98 system (copyright 1998, Gaussian, Inc.),
 the Gaussian(R) 94 system (copyright 1995, Gaussian, Inc.),
 the Gaussian 92(TM) system (copyright 1992, Gaussian, Inc.),
 the Gaussian 90(TM) system (copyright 1990, Gaussian, Inc.),
 the Gaussian 88(TM) system (copyright 1988, Gaussian, Inc.),
 the Gaussian 86(TM) system (copyright 1986, Carnegie Mellon
 University), and the Gaussian 82(TM) system (copyright 1983,
 Carnegie Mellon University). Gaussian is a federally registered
 trademark of Gaussian, Inc.
  
 This software contains proprietary and confidential information,
 including trade secrets, belonging to Gaussian, Inc.
  
 This software is provided under written license and may be
 used, copied, transmitted, or stored only in accord with that
 written license.
  
 The following legend is applicable only to US Government
 contracts under FAR:
  
                    RESTRICTED RIGHTS LEGEND
  
 Use, reproduction and disclosure by the US Government is
 subject to restrictions as set forth in subparagraphs (a)
 and (c) of the Commercial Computer Software - Restricted
 Rights clause in FAR 52.227-19.
  
 Gaussian, Inc.
 340 Quinnipiac St., Bldg. 40, Wallingford CT 06492
  
  
 ---------------------------------------------------------------
 Warning -- This program may not be used in any manner that
 competes with the business of Gaussian, Inc. or will provide
 assistance to any competitor of Gaussian, Inc.  The licensee
 of this program is prohibited from giving any competitor of
 Gaussian, Inc. access to this program.  By using this program,
 the user acknowledges that Gaussian, Inc. is engaged in the
 business of creating and licensing software in the field of
 computational chemistry and represents and warrants to the
 licensee that it is not a competitor of Gaussian, Inc. and that
 it will not use this program in any manner prohibited above.
 ---------------------------------------------------------------
  

 Cite this work as:
 Gaussian 09, Revision C.01,
 M. J. Frisch, G. W. Trucks, H. B. Schlegel, G. E. Scuseria, 
 M. A. Robb, J. R. Cheeseman, G. Scalmani, V. Barone, B. Mennucci, 
 G. A. Petersson, H. Nakatsuji, M. Caricato, X. Li, H. P. Hratchian, 
 A. F. Izmaylov, J. Bloino, G. Zheng, J. L. Sonnenberg, M. Hada, 
 M. Ehara, K. Toyota, R. Fukuda, J. Hasegawa, M. Ishida, T. Nakajima, 
 Y. Honda, O. Kitao, H. Nakai, T. Vreven, J. A. Montgomery, Jr., 
 J. E. Peralta, F. Ogliaro, M. Bearpark, J. J. Heyd, E. Brothers, 
 K. N. Kudin, V. N. Staroverov, T. Keith, R. Kobayashi, J. Normand, 
 K. Raghavachari, A. Rendell, J. C. Burant, S. S. Iyengar, J. Tomasi, 
 M. Cossi, N. Rega, J. M. Millam, M. Klene, J. E. Knox, J. B. Cross, 
 V. Bakken, C. Adamo, J. Jaramillo, R. Gomperts, R. E. Stratmann, 
 O. Yazyev, A. J. Austin, R. Cammi, C. Pomelli, J. W. Ochterski, 
 R. L. Martin, K. Morokuma, V. G. Zakrzewski, G. A. Voth, 
 P. Salvador, J. J. Dannenberg, S. Dapprich, A. D. Daniels, 
 O. Farkas, J. B. Foresman, J. V. Ortiz, J. Cioslowski, 
 and D. J. Fox, Gaussian, Inc., Wallingford CT, 2010.
 
 ******************************************
 Gaussian 09:  EM64L-G09RevC.01 23-Sep-2011
                23-Feb-2021 
 ******************************************
 %nprocshared=4
 Will use up to    4 processors via shared memory.
 %chk=rupdate.chk
 -----------------------------------------
 # opt freq b3lyp/6-31g* geom=connectivity
 -----------------------------------------
 1/14=-1,18=20,19=15,26=3,38=1,57=2/1,3;
 2/9=110,12=2,17=6,18=5,40=1/2;
 3/5=1,6=6,7=1,11=2,16=1,25=1,30=1,71=1,74=-5/1,2,3;
 4//1;
 5/5=2,38=5/2;
 6/7=2,8=2,9=2,10=2,28=1/1;
 7//1,2,3,16;
 1/14=-1,18=20,19=15/3(2);
 2/9=110/2;
 99//99;
 2/9=110/2;
 3/5=1,6=6,7=1,11=2,16=1,25=1,30=1,71=1,74=-5/1,2,3;
 4/5=5,16=3/1;
 5/5=2,38=5/2;
 7//1,2,3,16;
 1/14=-1,18=20,19=15/3(-5);
 2/9=110/2;
 6/7=2,8=2,9=2,10=2,19=2,28=1/1;
 99/9=1/99;
 ---------------------------------
 reaction new with updated version
 ---------------------------------
 Charge =  0 Multiplicity = 2
 Symbolic Z-Matrix:
 C                    -3.49581  -0.7391   -0.06098 
 H                    -3.38341  -0.13612  -0.93772 
 Cl                   -0.92304  -1.61417   0.83048 
 H                    -2.27239  -1.15522   0.36294 
 Cl                   -4.49426  -2.13915  -0.43588 
 Cl                   -4.26547   0.20764   1.20745 
 

 GradGradGradGradGradGradGradGradGradGradGradGradGradGradGradGradGradGrad
 Berny optimization.
 Initialization pass.
                           ----------------------------
                           !    Initial Parameters    !
                           ! (Angstroms and Degrees)  !
 --------------------------                            --------------------------
 ! Name  Definition              Value          Derivative Info.                !
 --------------------------------------------------------------------------------
 ! R1    R(1,2)                  1.07           estimate D2E/DX2                !
 ! R2    R(1,4)                  1.36           estimate D2E/DX2                !
 ! R3    R(1,5)                  1.76           estimate D2E/DX2                !
 ! R4    R(1,6)                  1.76           estimate D2E/DX2                !
 ! R5    R(3,4)                  1.5            estimate D2E/DX2                !
 ! A1    A(2,1,4)              109.4712         estimate D2E/DX2                !
 ! A2    A(2,1,5)              109.4712         estimate D2E/DX2                !
 ! A3    A(2,1,6)              109.4712         estimate D2E/DX2                !
 ! A4    A(4,1,5)              109.4712         estimate D2E/DX2                !
 ! A5    A(4,1,6)              109.4712         estimate D2E/DX2                !
 ! A6    A(5,1,6)              109.4712         estimate D2E/DX2                !
 ! A7    L(1,4,3,5,-1)         180.0            estimate D2E/DX2                !
 ! A8    L(1,4,3,5,-2)         179.9999         estimate D2E/DX2                !
 ! D1    D(2,1,5,4)            120.0            estimate D2E/DX2                !
 ! D2    D(2,1,6,4)           -120.0            estimate D2E/DX2                !
 ! D3    D(2,1,6,5)            120.0            estimate D2E/DX2                !
 ! D4    D(4,1,6,5)           -120.0            estimate D2E/DX2                !
 --------------------------------------------------------------------------------
 Trust Radius=3.00D-01 FncErr=1.00D-07 GrdErr=1.00D-06
 Number of steps in this run=     27 maximum allowed number of steps=    100.
 GradGradGradGradGradGradGradGradGradGradGradGradGradGradGradGradGradGrad

                          Input orientation:                          
 ---------------------------------------------------------------------
 Center     Atomic      Atomic             Coordinates (Angstroms)
 Number     Number       Type             X           Y           Z
 ---------------------------------------------------------------------
      1          6           0       -3.495808   -0.739100   -0.060978
      2          1           0       -3.383412   -0.136120   -0.937723
      3         17           0       -0.923037   -1.614169    0.830485
      4          1           0       -2.272393   -1.155217    0.362935
      5         17           0       -4.494265   -2.139148   -0.435875
      6         17           0       -4.265470    0.207637    1.207450
 ---------------------------------------------------------------------
                    Distance matrix (angstroms):
                    1          2          3          4          5
     1  C    0.000000
     2  H    1.070000   0.000000
     3  Cl   2.860000   3.371147   0.000000
     4  H    1.360000   1.991139   1.500000   0.000000
     5  Cl   1.760000   2.344774   3.825302   2.557916   0.000000
     6  Cl   1.760000   2.344774   3.825302   2.557916   2.874068
                    6
     6  Cl   0.000000
 Stoichiometry    CH2Cl3(2)
 Framework group  CS[SG(CH2Cl),X(Cl2)]
 Deg. of freedom     8
 Full point group                 CS      NOp   2
 Largest Abelian subgroup         CS      NOp   2
 Largest concise Abelian subgroup CS      NOp   2
                         Standard orientation:                         
 ---------------------------------------------------------------------
 Center     Atomic      Atomic             Coordinates (Angstroms)
 Number     Number       Type             X           Y           Z
 ---------------------------------------------------------------------
      1          6           0       -0.676862    0.086015    0.000000
      2          1           0       -1.550513    0.703780    0.000000
      3         17           0        1.658318    1.737238    0.000000
      4          1           0        0.433574    0.871211    0.000000
      5         17           0       -0.676862   -0.930122   -1.437034
      6         17           0       -0.676862   -0.930122    1.437034
 ---------------------------------------------------------------------
 Rotational constants (GHZ):      3.3238157      1.6642388      1.1473527
 Standard basis: 6-31G(d) (6D, 7F)
 There are    48 symmetry adapted basis functions of A'  symmetry.
 There are    28 symmetry adapted basis functions of A"  symmetry.
 Integral buffers will be    131072 words long.
 Raffenetti 2 integral format.
 Two-electron integral symmetry is turned on.
    76 basis functions,   192 primitive gaussians,    76 cartesian basis functions
    30 alpha electrons       29 beta electrons
       nuclear repulsion energy       242.3192062574 Hartrees.
 NAtoms=    6 NActive=    6 NUniq=    5 SFac= 1.44D+00 NAtFMM=   60 NAOKFM=F Big=F
 One-electron integrals computed using PRISM.
 NBasis=    76 RedAO= T  NBF=    48    28
 NBsUse=    76 1.00D-06 NBFU=    48    28
 Harris functional with IExCor=  402 diagonalized for initial guess.
 ExpMin= 1.43D-01 ExpMax= 2.52D+04 ExpMxC= 3.78D+03 IAcc=1 IRadAn=         1 AccDes= 0.00D+00
 HarFok:  IExCor=  402 AccDes= 0.00D+00 IRadAn=         1 IDoV= 1
 ScaDFX=  1.000000  1.000000  1.000000  1.000000
 FoFCou: FMM=F IPFlag=           0 FMFlag=      100000 FMFlg1=           0
         NFxFlg=           0 DoJE=T BraDBF=F KetDBF=T FulRan=T
         Omega=  0.000000  0.000000  1.000000  0.000000  0.000000 ICntrl=     500 IOpCl=  0
         NMat0=    1 NMatS0=    1 NMatT0=    0 NMatD0=    1 NMtDS0=    0 NMtDT0=    0
         I1Cent=           4 NGrid=           0.
 Petite list used in FoFCou.
 Initial guess orbital symmetries:
 Alpha Orbitals:
       Occupied  (A') (A") (A') (A') (A") (A') (A') (A') (A") (A')
                 (A") (A') (A") (A') (A") (A') (A') (A") (A') (A')
                 (A') (A') (A") (A') (A") (A') (A') (A") (A") (A')
       Virtual   (A') (A") (A') (A') (A') (A") (A') (A') (A") (A')
                 (A') (A') (A") (A') (A") (A") (A') (A') (A") (A')
                 (A") (A') (A") (A') (A") (A') (A") (A') (A") (A')
                 (A") (A') (A') (A") (A') (A') (A') (A") (A') (A')
                 (A") (A') (A') (A') (A") (A')
 Beta  Orbitals:
       Occupied  (A') (A") (A') (A') (A") (A') (A') (A') (A") (A')
                 (A") (A') (A") (A') (A") (A') (A') (A") (A') (A')
                 (A') (A') (A") (A') (A") (A') (A') (A") (A")
       Virtual   (A') (A') (A") (A') (A') (A') (A") (A') (A') (A")
                 (A') (A') (A') (A") (A') (A") (A") (A') (A') (A")
                 (A') (A") (A') (A") (A') (A") (A') (A") (A') (A")
                 (A') (A") (A') (A') (A") (A') (A') (A') (A") (A')
                 (A') (A") (A') (A') (A') (A") (A')
 The electronic state of the initial guess is 2-A'.
 Initial guess <Sx>= 0.0000 <Sy>= 0.0000 <Sz>= 0.5000 <S**2>= 0.7500 S= 0.5000
 Requested convergence on RMS density matrix=1.00D-08 within 128 cycles.
 Requested convergence on MAX density matrix=1.00D-06.
 Requested convergence on             energy=1.00D-06.
 No special actions if energy rises.
 Keep R1 and R2 ints in memory in canonical form, NReq=9546684.
 Integral accuracy reduced to 1.0D-05 until final iterations.
 Initial convergence to 1.0D-05 achieved.  Increase integral accuracy.
 SCF Done:  E(UB3LYP) =  -1419.82317996     A.U. after   17 cycles
             Convg  =    0.6017D-08             -V/T =  2.0032
 <Sx>= 0.0000 <Sy>= 0.0000 <Sz>= 0.5000 <S**2>= 0.7553 S= 0.5026
 <L.S>= 0.000000000000E+00
 Annihilation of the first spin contaminant:
 S**2 before annihilation     0.7553,   after     0.7500

 **********************************************************************

            Population analysis using the SCF density.

 **********************************************************************

 Orbital symmetries:
 Alpha Orbitals:
       Occupied  (A") (A') (A') (A') (A") (A') (A') (A') (A") (A")
                 (A') (A') (A") (A') (A') (A") (A') (A") (A') (A')
                 (A') (A') (A") (A') (A") (A') (A") (A') (A") (A')
       Virtual   (A') (A") (A') (A') (A') (A") (A') (A") (A') (A')
                 (A') (A') (A") (A') (A") (A") (A') (A') (A") (A")
                 (A') (A') (A") (A") (A') (A') (A") (A') (A") (A')
                 (A") (A') (A') (A") (A') (A') (A') (A") (A') (A')
                 (A") (A') (A') (A') (A") (A')
 Beta  Orbitals:
       Occupied  (A") (A') (A') (A') (A") (A') (A') (A') (A") (A")
                 (A') (A") (A') (A') (A') (A") (A') (A") (A') (A')
                 (A') (A') (A") (A') (A') (A") (A") (A') (A")
       Virtual   (A') (A') (A") (A') (A') (A') (A") (A') (A") (A')
                 (A') (A') (A') (A") (A") (A') (A") (A') (A') (A")
                 (A") (A') (A') (A") (A") (A') (A') (A") (A") (A')
                 (A') (A") (A') (A") (A') (A') (A') (A') (A") (A')
                 (A') (A") (A') (A') (A') (A") (A')
 The electronic state is 2-A'.
 Alpha  occ. eigenvalues -- -101.59538-101.59538-101.53989 -10.35589  -9.51192
 Alpha  occ. eigenvalues --   -9.51191  -9.45631  -7.27605  -7.27602  -7.26707
 Alpha  occ. eigenvalues --   -7.26706  -7.26513  -7.26513  -7.22408  -7.20970
 Alpha  occ. eigenvalues --   -7.20968  -0.94978  -0.86572  -0.82222  -0.69340
 Alpha  occ. eigenvalues --   -0.53576  -0.50864  -0.48512  -0.39496  -0.36405
 Alpha  occ. eigenvalues --   -0.36053  -0.34036  -0.31730  -0.31637  -0.29279
 Alpha virt. eigenvalues --   -0.03168   0.00200   0.08503   0.12561   0.30260
 Alpha virt. eigenvalues --    0.34675   0.35509   0.37295   0.38729   0.40896
 Alpha virt. eigenvalues --    0.41183   0.42377   0.43014   0.47173   0.47402
 Alpha virt. eigenvalues --    0.50717   0.51456   0.56350   0.59487   0.75138
 Alpha virt. eigenvalues --    0.77951   0.79785   0.82552   0.82932   0.83138
 Alpha virt. eigenvalues --    0.84677   0.85238   0.88069   0.88077   0.88875
 Alpha virt. eigenvalues --    0.93399   0.94649   1.00797   1.02278   1.09864
 Alpha virt. eigenvalues --    1.12390   1.41200   1.65724   1.69964   1.94053
 Alpha virt. eigenvalues --    2.10174   2.13167   4.00634   4.21785   4.23089
 Alpha virt. eigenvalues --    4.28250
  Beta  occ. eigenvalues -- -101.59463-101.59462-101.53660 -10.34735  -9.51121
  Beta  occ. eigenvalues --   -9.51120  -9.45323  -7.27540  -7.27538  -7.26496
  Beta  occ. eigenvalues --   -7.26496  -7.26467  -7.26466  -7.21373  -7.20782
  Beta  occ. eigenvalues --   -7.20780  -0.94165  -0.86102  -0.80039  -0.67618
  Beta  occ. eigenvalues --   -0.51343  -0.49320  -0.47916  -0.37569  -0.35419
  Beta  occ. eigenvalues --   -0.35361  -0.33816  -0.31013  -0.30914
  Beta virt. eigenvalues --   -0.19947  -0.02364   0.01188   0.09153   0.14268
  Beta virt. eigenvalues --    0.30500   0.34859   0.36247   0.37563   0.39260
  Beta virt. eigenvalues --    0.41187   0.41984   0.42932   0.43255   0.47565
  Beta virt. eigenvalues --    0.49066   0.51068   0.51880   0.58480   0.59996
  Beta virt. eigenvalues --    0.75857   0.78603   0.80443   0.83167   0.83653
  Beta virt. eigenvalues --    0.84227   0.86125   0.87444   0.88504   0.88508
  Beta virt. eigenvalues --    0.90348   0.93840   0.95444   1.02869   1.03066
  Beta virt. eigenvalues --    1.10383   1.12587   1.42163   1.68344   1.71814
  Beta virt. eigenvalues --    1.97441   2.11409   2.14960   4.01787   4.22715
  Beta virt. eigenvalues --    4.23329   4.29067
          Condensed to atoms (all electrons):
              1          2          3          4          5          6
     1  C    5.610331   0.356878  -0.104465   0.086156   0.223877   0.223877
     2  H    0.356878   0.479994   0.000568  -0.020514  -0.045313  -0.045313
     3  Cl  -0.104465   0.000568  17.105627   0.162186   0.004879   0.004879
     4  H    0.086156  -0.020514   0.162186   0.715534  -0.035336  -0.035336
     5  Cl   0.223877  -0.045313   0.004879  -0.035336  16.848569  -0.081338
     6  Cl   0.223877  -0.045313   0.004879  -0.035336  -0.081338  16.848569
 Mulliken atomic charges:
              1
     1  C   -0.396654
     2  H    0.273699
     3  Cl  -0.173674
     4  H    0.127308
     5  Cl   0.084661
     6  Cl   0.084661
 Sum of Mulliken atomic charges =   0.00000
 Mulliken charges with hydrogens summed into heavy atoms:
              1
     1  C    0.004353
     3  Cl  -0.173674
     5  Cl   0.084661
     6  Cl   0.084661
 Sum of Mulliken charges with hydrogens summed into heavy atoms =   0.00000
          Atomic-Atomic Spin Densities.
              1          2          3          4          5          6
     1  C    0.631212  -0.019449  -0.090277   0.050574  -0.069419  -0.069419
     2  H   -0.019449   0.016707   0.004023   0.001584   0.002164   0.002164
     3  Cl  -0.090277   0.004023   0.507184  -0.006769   0.009061   0.009061
     4  H    0.050574   0.001584  -0.006769  -0.112351  -0.000476  -0.000476
     5  Cl  -0.069419   0.002164   0.009061  -0.000476   0.148483   0.007794
     6  Cl  -0.069419   0.002164   0.009061  -0.000476   0.007794   0.148483
 Mulliken atomic spin densities:
              1
     1  C    0.433222
     2  H    0.007193
     3  Cl   0.432282
     4  H   -0.067913
     5  Cl   0.097608
     6  Cl   0.097608
 Sum of Mulliken atomic spin densities =   1.00000
 Electronic spatial extent (au):  <R**2>=            886.9944
 Charge=              0.0000 electrons
 Dipole moment (field-independent basis, Debye):
    X=             -2.6096    Y=             -0.7616    Z=              0.0000  Tot=              2.7184
 Quadrupole moment (field-independent basis, Debye-Ang):
   XX=            -45.2383   YY=            -46.8535   ZZ=            -44.7251
   XY=             -3.2863   XZ=              0.0000   YZ=              0.0000
 Traceless Quadrupole moment (field-independent basis, Debye-Ang):
   XX=              0.3673   YY=             -1.2479   ZZ=              0.8805
   XY=             -3.2863   XZ=              0.0000   YZ=              0.0000
 Octapole moment (field-independent basis, Debye-Ang**2):
  XXX=             -6.0607  YYY=             -9.5740  ZZZ=              0.0000  XYY=             -4.4736
  XXY=             -0.7423  XXZ=              0.0000  XZZ=             -1.3593  YZZ=             -6.1423
  YYZ=              0.0000  XYZ=              0.0000
 Hexadecapole moment (field-independent basis, Debye-Ang**3):
 XXXX=           -345.1418 YYYY=           -423.1322 ZZZZ=           -339.2779 XXXY=           -155.7256
 XXXZ=              0.0000 YYYX=           -157.5228 YYYZ=              0.0000 ZZZX=              0.0000
 ZZZY=              0.0000 XXYY=           -124.8527 XXZZ=           -120.4760 YYZZ=           -120.0997
 XXYZ=              0.0000 YYXZ=              0.0000 ZZXY=            -50.2776
 N-N= 2.423192062574D+02 E-N=-5.773800476477D+03  KE= 2.121674357711D+03
 Symmetry A'   KE= 1.361849682217D+03
 Symmetry A"   KE= 7.598246754943D+02
                          Isotropic Fermi Contact Couplings
        Atom                 a.u.       MegaHertz       Gauss      10(-4) cm-1
     1  C(13)              0.21639     243.26202      86.80194      81.14348
     2  H(1)               0.00791      35.33977      12.61011      11.78808
     3  Cl(35)             0.02327      10.20141       3.64012       3.40282
     4  H(1)              -0.01850     -82.68513     -29.50411     -27.58079
     5  Cl(35)             0.01623       7.11538       2.53894       2.37344
     6  Cl(35)             0.01623       7.11538       2.53894       2.37344
 --------------------------------------------------------
       Center         ----  Spin Dipole Couplings  ----
                      3XX-RR        3YY-RR        3ZZ-RR
 --------------------------------------------------------
     1   Atom        0.378240     -0.100680     -0.277560
     2   Atom        0.022672      0.008202     -0.030874
     3   Atom        1.548646     -0.135207     -1.413439
     4   Atom        0.074874      0.004732     -0.079606
     5   Atom        0.482552     -0.092081     -0.390471
     6   Atom        0.482552     -0.092081     -0.390471
 --------------------------------------------------------
                        XY            XZ            YZ
 --------------------------------------------------------
     1   Atom        0.339878      0.000000      0.000000
     2   Atom       -0.025688      0.000000      0.000000
     3   Atom        1.945375      0.000000      0.000000
     4   Atom        0.114509      0.000000      0.000000
     5   Atom        0.491804      0.178611      0.036659
     6   Atom        0.491804     -0.178611     -0.036659
 --------------------------------------------------------


 ---------------------------------------------------------------------------------
              Anisotropic Spin Dipole Couplings in Principal Axis System
 ---------------------------------------------------------------------------------

       Atom             a.u.   MegaHertz   Gauss  10(-4) cm-1        Axes

              Baa    -0.2776   -37.246   -13.290   -12.424  0.0000  0.0000  1.0000
     1 C(13)  Bbb    -0.2770   -37.168   -13.263   -12.398 -0.4605  0.8877  0.0000
              Bcc     0.5545    74.414    26.553    24.822  0.8877  0.4605  0.0000
 
              Baa    -0.0309   -16.473    -5.878    -5.495  0.0000  0.0000  1.0000
     2 H(1)   Bbb    -0.0113    -6.003    -2.142    -2.002  0.6037  0.7972  0.0000
              Bcc     0.0421    22.475     8.020     7.497  0.7972 -0.6037  0.0000
 
              Baa    -1.4134   -73.976   -26.397   -24.676  0.0000  0.0000  1.0000
     3 Cl(35) Bbb    -1.4130   -73.954   -26.389   -24.669 -0.5490  0.8358  0.0000
              Bcc     2.8265   147.931    52.785    49.344  0.8358  0.5490  0.0000
 
              Baa    -0.0800   -42.661   -15.222   -14.230 -0.5946  0.8040  0.0000
     4 H(1)   Bbb    -0.0796   -42.474   -15.156   -14.168  0.0000  0.0000  1.0000
              Bcc     0.1596    85.135    30.378    28.398  0.8040  0.5946  0.0000
 
              Baa    -0.4553   -23.831    -8.503    -7.949 -0.3849  0.4392  0.8118
     5 Cl(35) Bbb    -0.3349   -17.530    -6.255    -5.847 -0.3309  0.7554 -0.5656
              Bcc     0.7903    41.361    14.759    13.797  0.8616  0.4863  0.1454
 
              Baa    -0.4553   -23.831    -8.503    -7.949  0.3849 -0.4392  0.8118
     6 Cl(35) Bbb    -0.3349   -17.530    -6.255    -5.847 -0.3309  0.7554  0.5656
              Bcc     0.7903    41.361    14.759    13.797  0.8616  0.4863 -0.1454
 

 ---------------------------------------------------------------------------------

 Calling FoFJK, ICntrl=      2127 FMM=F ISym2X=1 I1Cent= 0 IOpClX= 1 NMat=1 NMatS=1 NMatT=0.
 ***** Axes restored to original set *****
 -------------------------------------------------------------------
 Center     Atomic                   Forces (Hartrees/Bohr)
 Number     Number              X              Y              Z
 -------------------------------------------------------------------
      1        6          -0.025315782   -0.007819879    0.014691971
      2        1           0.011674666    0.006546678   -0.010974545
      3       17           0.006098260   -0.001505387    0.001300759
      4        1          -0.011877280    0.003710737   -0.003645561
      5       17           0.009276148   -0.004916866   -0.003802959
      6       17           0.010143988    0.003984717    0.002430334
 -------------------------------------------------------------------
 Cartesian Forces:  Max     0.025315782 RMS     0.009649805

 GradGradGradGradGradGradGradGradGradGradGradGradGradGradGradGradGradGrad
 Berny optimization.
 Internal  Forces:  Max     0.022740328 RMS     0.008348725
 Search for a local minimum.
 Step number   1 out of a maximum of   27
 All quantities printed in internal units (Hartrees-Bohrs-Radians)
 Mixed Optimization -- RFO/linear search
 Second derivative matrix not updated -- first step.
 The second derivative matrix:
                          R1        R2        R3        R4        R5
           R1           0.37230
           R2           0.00000   0.15891
           R3           0.00000   0.00000   0.29539
           R4           0.00000   0.00000   0.00000   0.29539
           R5           0.00000   0.00000   0.00000   0.00000   0.16862
           A1           0.00000   0.00000   0.00000   0.00000   0.00000
           A2           0.00000   0.00000   0.00000   0.00000   0.00000
           A3           0.00000   0.00000   0.00000   0.00000   0.00000
           A4           0.00000   0.00000   0.00000   0.00000   0.00000
           A5           0.00000   0.00000   0.00000   0.00000   0.00000
           A6           0.00000   0.00000   0.00000   0.00000   0.00000
           A7           0.00000   0.00000   0.00000   0.00000   0.00000
           A8           0.00000   0.00000   0.00000   0.00000   0.00000
           D1           0.00000   0.00000   0.00000   0.00000   0.00000
           D2           0.00000   0.00000   0.00000   0.00000   0.00000
           D3           0.00000   0.00000   0.00000   0.00000   0.00000
           D4           0.00000   0.00000   0.00000   0.00000   0.00000
                          A1        A2        A3        A4        A5
           A1           0.16000
           A2           0.00000   0.16000
           A3           0.00000   0.00000   0.16000
           A4           0.00000   0.00000   0.00000   0.16000
           A5           0.00000   0.00000   0.00000   0.00000   0.16000
           A6           0.00000   0.00000   0.00000   0.00000   0.00000
           A7           0.00000   0.00000   0.00000   0.00000   0.00000
           A8           0.00000   0.00000   0.00000   0.00000   0.00000
           D1           0.00000   0.00000   0.00000   0.00000   0.00000
           D2           0.00000   0.00000   0.00000   0.00000   0.00000
           D3           0.00000   0.00000   0.00000   0.00000   0.00000
           D4           0.00000   0.00000   0.00000   0.00000   0.00000
                          A6        A7        A8        D1        D2
           A6           0.25000
           A7           0.00000   0.00230
           A8           0.00000   0.00000   0.00230
           D1           0.00000   0.00000   0.00000   0.00238
           D2           0.00000   0.00000   0.00000   0.00000   0.00238
           D3           0.00000   0.00000   0.00000   0.00000   0.00000
           D4           0.00000   0.00000   0.00000   0.00000   0.00000
                          D3        D4
           D3           0.00238
           D4           0.00000   0.00238
 ITU=  0
     Eigenvalues ---    0.00230   0.00230   0.05411   0.05720   0.08670
     Eigenvalues ---    0.15891   0.16000   0.16862   0.21983   0.29539
     Eigenvalues ---    0.29539   0.37230
 RFO step:  Lambda=-7.92310018D-03 EMin= 2.30000000D-03
 Linear search not attempted -- first point.
 Iteration  1 RMS(Cart)=  0.08714847 RMS(Int)=  0.00818754
 Iteration  2 RMS(Cart)=  0.01048883 RMS(Int)=  0.00305997
 Iteration  3 RMS(Cart)=  0.00010289 RMS(Int)=  0.00305818
 Iteration  4 RMS(Cart)=  0.00000018 RMS(Int)=  0.00305818
 ClnCor:  largest displacement from symmetrization is 1.23D-01 for atom     6.
          Exceeds limit of 1.00D-01 so symmetrization was rejected.
 Variable       Old X    -DE/DX   Delta X   Delta X   Delta X     New X
                                 (Linear)    (Quad)   (Total)
    R1        2.02201   0.01391   0.00000   0.03658   0.03658   2.05858
    R2        2.57003  -0.00660   0.00000  -0.03959  -0.03959   2.53044
    R3        3.32592  -0.00054   0.00000  -0.00178  -0.00178   3.32414
    R4        3.32592  -0.00054   0.00000  -0.00178  -0.00178   3.32414
    R5        2.83459   0.00635   0.00000   0.03598   0.03598   2.87057
    A1        1.91063  -0.00066   0.00000  -0.07069  -0.07046   1.84018
    A2        1.91063  -0.00424   0.00000   0.03176   0.02363   1.93426
    A3        1.91063   0.00034   0.00000   0.03675   0.03097   1.94161
    A4        1.91063  -0.00800   0.00000  -0.05842  -0.05559   1.85504
    A5        1.91063  -0.01018   0.00000  -0.05980  -0.05870   1.85194
    A6        1.91063   0.02274   0.00000   0.12040   0.11630   2.02694
    A7        3.14159   0.00128   0.00000   0.12490   0.12490   3.26650
    A8        3.14159  -0.00143   0.00000  -0.14034  -0.14034   3.00125
    D1        2.09440  -0.00830   0.00000  -0.10290  -0.10360   1.99080
    D2       -2.09440   0.00684   0.00000   0.10069   0.10170  -1.99269
    D3        2.09440   0.00894   0.00000   0.13513   0.13960   2.23399
    D4       -2.09440   0.00210   0.00000   0.03444   0.03790  -2.05650
         Item               Value     Threshold  Converged?
 Maximum Force            0.022740     0.000450     NO 
 RMS     Force            0.008349     0.000300     NO 
 Maximum Displacement     0.170568     0.001800     NO 
 RMS     Displacement     0.090785     0.001200     NO 
 Predicted change in Energy=-4.581953D-03
 GradGradGradGradGradGradGradGradGradGradGradGradGradGradGradGradGradGrad

                          Input orientation:                          
 ---------------------------------------------------------------------
 Center     Atomic      Atomic             Coordinates (Angstroms)
 Number     Number       Type             X           Y           Z
 ---------------------------------------------------------------------
      1          6           0       -3.542448   -0.753300   -0.050136
      2          1           0       -3.312117   -0.155522   -0.931217
      3         17           0       -0.935853   -1.530842    0.799762
      4          1           0       -2.362654   -1.209021    0.389703
      5         17           0       -4.487559   -2.171384   -0.486123
      6         17           0       -4.193753    0.243951    1.244304
 ---------------------------------------------------------------------
                    Distance matrix (angstroms):
                    1          2          3          4          5
     1  C    0.000000
     2  H    1.089355   0.000000
     3  Cl   2.849778   3.245678   0.000000
     4  H    1.339050   1.938085   1.519038   0.000000
     5  Cl   1.759057   2.375599   3.831241   2.491673   0.000000
     6  Cl   1.759057   2.381124   3.736499   2.488855   2.985723
                    6
     6  Cl   0.000000
 Stoichiometry    CH2Cl3(2)
 Framework group  C1[X(CH2Cl3)]
 Deg. of freedom    12
 Full point group                 C1      NOp   1
 Omega: Change in point group or standard orientation.

 Old FWG=CS   [SG(C1H2Cl1),X(Cl2)]
 New FWG=C01  [X(C1H2Cl3)]
 Largest Abelian subgroup         C1      NOp   1
 Largest concise Abelian subgroup C1      NOp   1
                         Standard orientation:                         
 ---------------------------------------------------------------------
 Center     Atomic      Atomic             Coordinates (Angstroms)
 Number     Number       Type             X           Y           Z
 ---------------------------------------------------------------------
      1          6           0       -0.431354    0.002804    0.515454
      2          1           0       -0.426759    0.009547    1.604779
      3         17           0        2.358282    0.093427   -0.059834
      4          1           0        0.854243    0.097526    0.153068
      5         17           0       -1.228762    1.438206   -0.115453
      6         17           0       -1.002424   -1.538921   -0.110042
 ---------------------------------------------------------------------
 Rotational constants (GHZ):      3.1148567      1.7286518      1.1459068
 Standard basis: 6-31G(d) (6D, 7F)
 There are    76 symmetry adapted basis functions of A   symmetry.
 Integral buffers will be    131072 words long.
 Raffenetti 2 integral format.
 Two-electron integral symmetry is turned on.
    76 basis functions,   192 primitive gaussians,    76 cartesian basis functions
    30 alpha electrons       29 beta electrons
       nuclear repulsion energy       241.4198786216 Hartrees.
 NAtoms=    6 NActive=    6 NUniq=    6 SFac= 1.00D+00 NAtFMM=   60 NAOKFM=F Big=F
 One-electron integrals computed using PRISM.
 NBasis=    76 RedAO= T  NBF=    76
 NBsUse=    76 1.00D-06 NBFU=    76
 Initial guess read from the read-write file.
 B after Tr=     0.000000    0.000000    0.000000
         Rot=    1.000000    0.000000    0.000000    0.000000 Ang=   0.00 deg.
 Initial guess orbital symmetries:
 Alpha Orbitals:
       Occupied  (A) (A) (A) (A) (A) (A) (A) (A) (A) (A) (A) (A)
                 (A) (A) (A) (A) (A) (A) (A) (A) (A) (A) (A) (A)
                 (A) (A) (A) (A) (A) (A)
       Virtual   (A) (A) (A) (A) (A) (A) (A) (A) (A) (A) (A) (A)
                 (A) (A) (A) (A) (A) (A) (A) (A) (A) (A) (A) (A)
                 (A) (A) (A) (A) (A) (A) (A) (A) (A) (A) (A) (A)
                 (A) (A) (A) (A) (A) (A) (A) (A) (A) (A)
 Beta  Orbitals:
       Occupied  (A) (A) (A) (A) (A) (A) (A) (A) (A) (A) (A) (A)
                 (A) (A) (A) (A) (A) (A) (A) (A) (A) (A) (A) (A)
                 (A) (A) (A) (A) (A)
       Virtual   (A) (A) (A) (A) (A) (A) (A) (A) (A) (A) (A) (A)
                 (A) (A) (A) (A) (A) (A) (A) (A) (A) (A) (A) (A)
                 (A) (A) (A) (A) (A) (A) (A) (A) (A) (A) (A) (A)
                 (A) (A) (A) (A) (A) (A) (A) (A) (A) (A) (A)
 Initial guess <Sx>= 0.0000 <Sy>= 0.0000 <Sz>= 0.5000 <S**2>= 0.7577 S= 0.5038
 Harris functional with IExCor=  402 diagonalized for initial guess.
 ExpMin= 1.43D-01 ExpMax= 2.52D+04 ExpMxC= 3.78D+03 IAcc=1 IRadAn=         1 AccDes= 0.00D+00
 HarFok:  IExCor=  402 AccDes= 0.00D+00 IRadAn=         1 IDoV= 1
 ScaDFX=  1.000000  1.000000  1.000000  1.000000
 FoFCou: FMM=F IPFlag=           0 FMFlag=      100000 FMFlg1=           0
         NFxFlg=           0 DoJE=T BraDBF=F KetDBF=T FulRan=T
         Omega=  0.000000  0.000000  1.000000  0.000000  0.000000 ICntrl=     500 IOpCl=  0
         NMat0=    1 NMatS0=    1 NMatT0=    0 NMatD0=    1 NMtDS0=    0 NMtDT0=    0
         I1Cent=           4 NGrid=           0.
 Petite list used in FoFCou.
 Requested convergence on RMS density matrix=1.00D-08 within 128 cycles.
 Requested convergence on MAX density matrix=1.00D-06.
 Requested convergence on             energy=1.00D-06.
 No special actions if energy rises.
 Keep R1 and R2 ints in memory in canonical form, NReq=9546585.
 Integral accuracy reduced to 1.0D-05 until final iterations.
 Initial convergence to 1.0D-05 achieved.  Increase integral accuracy.
 SCF Done:  E(UB3LYP) =  -1419.82721815     A.U. after   18 cycles
             Convg  =    0.6671D-08             -V/T =  2.0032
 <Sx>= 0.0000 <Sy>= 0.0000 <Sz>= 0.5000 <S**2>= 0.7552 S= 0.5026
 <L.S>= 0.000000000000E+00
 Annihilation of the first spin contaminant:
 S**2 before annihilation     0.7552,   after     0.7500
 Calling FoFJK, ICntrl=      2127 FMM=F ISym2X=0 I1Cent= 0 IOpClX= 1 NMat=1 NMatS=1 NMatT=0.
 ***** Axes restored to original set *****
 -------------------------------------------------------------------
 Center     Atomic                   Forces (Hartrees/Bohr)
 Number     Number              X              Y              Z
 -------------------------------------------------------------------
      1        6          -0.005610186   -0.002643181    0.003790067
      2        1           0.002953926   -0.000517003    0.001027432
      3       17           0.005268036   -0.002187424    0.001365393
      4        1          -0.008228392    0.005184027   -0.004048976
      5       17           0.003327576    0.004225072    0.002280549
      6       17           0.002289040   -0.004061492   -0.004414463
 -------------------------------------------------------------------
 Cartesian Forces:  Max     0.008228392 RMS     0.003969311

 GradGradGradGradGradGradGradGradGradGradGradGradGradGradGradGradGradGrad
 Berny optimization.
 Using GEDIIS/GDIIS optimizer.
 Internal  Forces:  Max     0.006399239 RMS     0.002960595
 Search for a local minimum.
 Step number   2 out of a maximum of   27
 All quantities printed in internal units (Hartrees-Bohrs-Radians)
 Mixed Optimization -- RFO/linear search
 Update second derivatives using D2CorX and points    1    2
 DE= -4.04D-03 DEPred=-4.58D-03 R= 8.81D-01
 SS=  1.41D+00  RLast= 3.29D-01 DXNew= 5.0454D-01 9.8611D-01
 Trust test= 8.81D-01 RLast= 3.29D-01 DXMaxT set to 5.05D-01
 The second derivative matrix:
                          R1        R2        R3        R4        R5
           R1           0.37221
           R2           0.00889   0.15351
           R3           0.01121  -0.00197   0.29902
           R4           0.01246  -0.00215   0.00408   0.29998
           R5          -0.01138   0.00561   0.00088   0.00093   0.16310
           A1           0.02517  -0.01101  -0.00019  -0.00010   0.01042
           A2          -0.01853   0.00516  -0.00359  -0.00407  -0.00389
           A3          -0.01115   0.00485   0.00005   0.00001  -0.00458
           A4           0.00295  -0.00623  -0.00628  -0.00696   0.00755
           A5          -0.00197  -0.00584  -0.00847  -0.00942   0.00777
           A6          -0.01315   0.02087   0.01924   0.02133  -0.02482
           A7           0.00740  -0.00089   0.00292   0.00328   0.00005
           A8          -0.00224   0.00011  -0.00108  -0.00121   0.00018
           D1          -0.01295   0.00172  -0.00490  -0.00550  -0.00031
           D2           0.01060  -0.00138   0.00404   0.00454   0.00022
           D3           0.01388  -0.00180   0.00530   0.00595   0.00027
           D4           0.00328  -0.00042   0.00126   0.00142   0.00005
                          A1        A2        A3        A4        A5
           A1           0.14092
           A2           0.00569   0.16197
           A3           0.00838  -0.00247   0.15632
           A4          -0.01624   0.01099   0.00718   0.15649
           A5          -0.01750   0.01356   0.00776  -0.00091   0.16291
           A6           0.05283  -0.03459  -0.02336   0.01342   0.00567
           A7           0.00105  -0.00324  -0.00048  -0.00401  -0.00569
           A8          -0.00075   0.00130   0.00034   0.00116   0.00175
           D1          -0.00136   0.00532   0.00064   0.00707   0.00991
           D2           0.00119  -0.00441  -0.00056  -0.00578  -0.00812
           D3           0.00158  -0.00579  -0.00074  -0.00756  -0.01064
           D4           0.00040  -0.00139  -0.00018  -0.00179  -0.00252
                          A6        A7        A8        D1        D2
           A6           0.20027
           A7           0.01210   0.00457
           A8          -0.00343  -0.00082   0.00259
           D1          -0.02141  -0.00384   0.00138   0.00885
           D2           0.01749   0.00316  -0.00114  -0.00533   0.00678
           D3           0.02289   0.00415  -0.00150  -0.00700   0.00577
           D4           0.00540   0.00099  -0.00036  -0.00167   0.00137
                          D3        D4
           D3           0.00995
           D4           0.00180   0.00281
 ITU=  1  0
 Use linear search instead of GDIIS.
     Eigenvalues ---    0.00226   0.00271   0.04664   0.05416   0.09833
     Eigenvalues ---    0.14496   0.16140   0.16455   0.23093   0.29539
     Eigenvalues ---    0.31233   0.37862
 RFO step:  Lambda=-2.75042759D-03 EMin= 2.26090438D-03
 Quartic linear search produced a step of  0.07249.
 Maximum step size (   0.505) exceeded in Quadratic search.
    -- Step size scaled by   0.837
 Iteration  1 RMS(Cart)=  0.09162619 RMS(Int)=  0.07183801
 Iteration  2 RMS(Cart)=  0.09211136 RMS(Int)=  0.02428164
 Iteration  3 RMS(Cart)=  0.04545605 RMS(Int)=  0.00197528
 Iteration  4 RMS(Cart)=  0.00175871 RMS(Int)=  0.00088820
 Iteration  5 RMS(Cart)=  0.00000056 RMS(Int)=  0.00088820
 Variable       Old X    -DE/DX   Delta X   Delta X   Delta X     New X
                                 (Linear)    (Quad)   (Total)
    R1        2.05858  -0.00049   0.00265   0.00921   0.01186   2.07044
    R2        2.53044  -0.00451  -0.00287  -0.03650  -0.03937   2.49106
    R3        3.32414  -0.00576  -0.00013  -0.01806  -0.01819   3.30595
    R4        3.32414  -0.00640  -0.00013  -0.02002  -0.02015   3.30399
    R5        2.87057   0.00578   0.00261   0.04079   0.04340   2.91396
    A1        1.84018  -0.00167  -0.00511  -0.04197  -0.04686   1.79331
    A2        1.93426   0.00130   0.00171   0.01891   0.01831   1.95257
    A3        1.94161   0.00082   0.00225   0.01569   0.01614   1.95774
    A4        1.85504  -0.00008  -0.00403  -0.02040  -0.02372   1.83132
    A5        1.85194   0.00080  -0.00425  -0.01496  -0.01895   1.83299
    A6        2.02694  -0.00133   0.00843   0.03081   0.03783   2.06477
    A7        3.26650  -0.00284   0.00905  -0.49665  -0.48760   2.77890
    A8        3.00125   0.00006  -0.01017  -0.00575  -0.01592   2.98533
    D1        1.99080  -0.00137  -0.00751  -0.05128  -0.05908   1.93172
    D2       -1.99269   0.00112   0.00737   0.05013   0.05781  -1.93488
    D3        2.23399   0.00144   0.01012   0.06834   0.07962   2.31362
    D4       -2.05650   0.00032   0.00275   0.01821   0.02181  -2.03469
         Item               Value     Threshold  Converged?
 Maximum Force            0.006399     0.000450     NO 
 RMS     Force            0.002961     0.000300     NO 
 Maximum Displacement     0.493494     0.001800     NO 
 RMS     Displacement     0.223945     0.001200     NO 
 Predicted change in Energy=-1.736110D-03
 GradGradGradGradGradGradGradGradGradGradGradGradGradGradGradGradGradGrad

                          Input orientation:                          
 ---------------------------------------------------------------------
 Center     Atomic      Atomic             Coordinates (Angstroms)
 Number     Number       Type             X           Y           Z
 ---------------------------------------------------------------------
      1          6           0       -3.547241   -0.701020   -0.027267
      2          1           0       -3.326929   -0.122824   -0.931455
      3         17           0       -1.057363   -1.791988    0.676849
      4          1           0       -2.346395   -0.979636    0.439670
      5         17           0       -4.256005   -2.255407   -0.404164
      6         17           0       -4.300451    0.274758    1.212661
 ---------------------------------------------------------------------
                    Distance matrix (angstroms):
                    1          2          3          4          5
     1  C    0.000000
     2  H    1.095630   0.000000
     3  Cl   2.808110   3.244022   0.000000
     4  H    1.318214   1.890915   1.542002   0.000000
     5  Cl   1.749433   2.385189   3.408028   2.446683   0.000000
     6  Cl   1.748396   2.388105   3.882802   2.447315   3.002971
                    6
     6  Cl   0.000000
 Stoichiometry    CH2Cl3(2)
 Framework group  C1[X(CH2Cl3)]
 Deg. of freedom    12
 Full point group                 C1      NOp   1
 Largest Abelian subgroup         C1      NOp   1
 Largest concise Abelian subgroup C1      NOp   1
                         Standard orientation:                         
 ---------------------------------------------------------------------
 Center     Atomic      Atomic             Coordinates (Angstroms)
 Number     Number       Type             X           Y           Z
 ---------------------------------------------------------------------
      1          6           0       -0.479126    0.013880    0.544645
      2          1           0       -0.499145    0.015388    1.640090
      3         17           0        2.218268   -0.478019   -0.061641
      4          1           0        0.713722   -0.478788    0.276161
      5         17           0       -0.454106    1.636413   -0.109018
      6         17           0       -1.607681   -1.136034   -0.134289
 ---------------------------------------------------------------------
 Rotational constants (GHZ):      3.2715697      1.8006119      1.2027705
 Standard basis: 6-31G(d) (6D, 7F)
 There are    76 symmetry adapted basis functions of A   symmetry.
 Integral buffers will be    131072 words long.
 Raffenetti 2 integral format.
 Two-electron integral symmetry is turned on.
    76 basis functions,   192 primitive gaussians,    76 cartesian basis functions
    30 alpha electrons       29 beta electrons
       nuclear repulsion energy       245.2196951999 Hartrees.
 NAtoms=    6 NActive=    6 NUniq=    6 SFac= 1.00D+00 NAtFMM=   60 NAOKFM=F Big=F
 One-electron integrals computed using PRISM.
 NBasis=    76 RedAO= T  NBF=    76
 NBsUse=    76 1.00D-06 NBFU=    76
 Initial guess read from the read-write file.
 B after Tr=     0.000000    0.000000    0.000000
         Rot=    1.000000    0.000000    0.000000    0.000000 Ang=   0.00 deg.
 Initial guess orbital symmetries:
 Alpha Orbitals:
       Occupied  (A) (A) (A) (A) (A) (A) (A) (A) (A) (A) (A) (A)
                 (A) (A) (A) (A) (A) (A) (A) (A) (A) (A) (A) (A)
                 (A) (A) (A) (A) (A) (A)
       Virtual   (A) (A) (A) (A) (A) (A) (A) (A) (A) (A) (A) (A)
                 (A) (A) (A) (A) (A) (A) (A) (A) (A) (A) (A) (A)
                 (A) (A) (A) (A) (A) (A) (A) (A) (A) (A) (A) (A)
                 (A) (A) (A) (A) (A) (A) (A) (A) (A) (A)
 Beta  Orbitals:
       Occupied  (A) (A) (A) (A) (A) (A) (A) (A) (A) (A) (A) (A)
                 (A) (A) (A) (A) (A) (A) (A) (A) (A) (A) (A) (A)
                 (A) (A) (A) (A) (A)
       Virtual   (A) (A) (A) (A) (A) (A) (A) (A) (A) (A) (A) (A)
                 (A) (A) (A) (A) (A) (A) (A) (A) (A) (A) (A) (A)
                 (A) (A) (A) (A) (A) (A) (A) (A) (A) (A) (A) (A)
                 (A) (A) (A) (A) (A) (A) (A) (A) (A) (A) (A)
 Initial guess <Sx>= 0.0000 <Sy>= 0.0000 <Sz>= 0.5000 <S**2>= 0.7557 S= 0.5028
 Harris functional with IExCor=  402 diagonalized for initial guess.
 ExpMin= 1.43D-01 ExpMax= 2.52D+04 ExpMxC= 3.78D+03 IAcc=1 IRadAn=         1 AccDes= 0.00D+00
 HarFok:  IExCor=  402 AccDes= 0.00D+00 IRadAn=         1 IDoV= 1
 ScaDFX=  1.000000  1.000000  1.000000  1.000000
 FoFCou: FMM=F IPFlag=           0 FMFlag=      100000 FMFlg1=           0
         NFxFlg=           0 DoJE=T BraDBF=F KetDBF=T FulRan=T
         Omega=  0.000000  0.000000  1.000000  0.000000  0.000000 ICntrl=     500 IOpCl=  0
         NMat0=    1 NMatS0=    1 NMatT0=    0 NMatD0=    1 NMtDS0=    0 NMtDT0=    0
         I1Cent=           4 NGrid=           0.
 Petite list used in FoFCou.
 Requested convergence on RMS density matrix=1.00D-08 within 128 cycles.
 Requested convergence on MAX density matrix=1.00D-06.
 Requested convergence on             energy=1.00D-06.
 No special actions if energy rises.
 Keep R1 and R2 ints in memory in canonical form, NReq=9546585.
 Integral accuracy reduced to 1.0D-05 until final iterations.
 EnCoef did     2 forward-backward iterations
 Initial convergence to 1.0D-05 achieved.  Increase integral accuracy.
 SCF Done:  E(UB3LYP) =  -1419.82448714     A.U. after   19 cycles
             Convg  =    0.3868D-08             -V/T =  2.0032
 <Sx>= 0.0000 <Sy>= 0.0000 <Sz>= 0.5000 <S**2>= 0.7552 S= 0.5026
 <L.S>= 0.000000000000E+00
 Annihilation of the first spin contaminant:
 S**2 before annihilation     0.7552,   after     0.7500
 Calling FoFJK, ICntrl=      2127 FMM=F ISym2X=0 I1Cent= 0 IOpClX= 1 NMat=1 NMatS=1 NMatT=0.
 ***** Axes restored to original set *****
 -------------------------------------------------------------------
 Center     Atomic                   Forces (Hartrees/Bohr)
 Number     Number              X              Y              Z
 -------------------------------------------------------------------
      1        6           0.007288493    0.001192669   -0.000428015
      2        1          -0.001796267   -0.001831877    0.003508844
      3       17           0.009654195    0.000700372    0.003492426
      4        1          -0.009531577   -0.003173028   -0.005708559
      5       17          -0.003902873    0.005506824    0.001303934
      6       17          -0.001711970   -0.002394960   -0.002168630
 -------------------------------------------------------------------
 Cartesian Forces:  Max     0.009654195 RMS     0.004556115

 GradGradGradGradGradGradGradGradGradGradGradGradGradGradGradGradGradGrad
 Berny optimization.
 Using GEDIIS/GDIIS optimizer.
 Internal  Forces:  Max     0.017970648 RMS     0.005823561
 Search for a local minimum.
 Step number   3 out of a maximum of   27
 All quantities printed in internal units (Hartrees-Bohrs-Radians)
 Mixed Optimization -- RFO/linear search
 Update second derivatives using D2CorX and points    1    3    2
 DE=  2.73D-03 DEPred=-1.74D-03 R=-1.57D+00
 Trust test=-1.57D+00 RLast= 5.11D-01 DXMaxT set to 2.52D-01
 The second derivative matrix:
                          R1        R2        R3        R4        R5
           R1           0.37341
           R2           0.00706   0.14372
           R3           0.01001  -0.01550   0.28151
           R4           0.01051  -0.01646  -0.01503   0.27944
           R5          -0.01167   0.02116   0.01959   0.02212   0.14503
           A1           0.02486  -0.01910  -0.01032  -0.01134   0.02077
           A2          -0.01872   0.00818  -0.00008  -0.00002  -0.00713
           A3          -0.01129   0.00647   0.00190   0.00216  -0.00623
           A4           0.00073  -0.00584  -0.00772  -0.00748   0.01167
           A5          -0.00190  -0.00586  -0.00844  -0.00942   0.00766
           A6          -0.01112   0.01595   0.01501   0.01556  -0.02313
           A7           0.00054   0.00434   0.00335   0.00718   0.00800
           A8          -0.00251   0.00037  -0.00101  -0.00099   0.00045
           D1          -0.01428   0.00138  -0.00646  -0.00660   0.00286
           D2           0.01072   0.00007   0.00591   0.00658  -0.00177
           D3           0.01550  -0.00161   0.00694   0.00699  -0.00331
           D4           0.00478  -0.00168   0.00103   0.00041  -0.00154
                          A1        A2        A3        A4        A5
           A1           0.13518
           A2           0.00760   0.16141
           A3           0.00937  -0.00275   0.15618
           A4          -0.01770   0.01198   0.00778   0.15986
           A5          -0.01746   0.01354   0.00774  -0.00102   0.16291
           A6           0.05108  -0.03451  -0.02340   0.00924   0.00580
           A7          -0.00076  -0.00105   0.00092   0.00740  -0.00605
           A8          -0.00080   0.00138   0.00039   0.00163   0.00174
           D1          -0.00263   0.00604   0.00106   0.00896   0.00985
           D2           0.00227  -0.00478  -0.00075  -0.00561  -0.00812
           D3           0.00298  -0.00662  -0.00123  -0.00991  -0.01056
           D4           0.00071  -0.00184  -0.00048  -0.00430  -0.00244
                          A6        A7        A8        D1        D2
           A6           0.20344
           A7          -0.00026   0.04160
           A8          -0.00392   0.00070   0.00265
           D1          -0.02401   0.00279   0.00166   0.00988
           D2           0.01793   0.00316  -0.00115  -0.00516   0.00658
           D3           0.02601  -0.00398  -0.00183  -0.00830   0.00559
           D4           0.00808  -0.00713  -0.00069  -0.00314   0.00139
                          D3        D4
           D3           0.01157
           D4           0.00360   0.00459
 ITU= -1  1  0
 Use linear search instead of GDIIS.
 Quartic linear search produced a step of -0.72876.
 Iteration  1 RMS(Cart)=  0.09945226 RMS(Int)=  0.03872950
 Iteration  2 RMS(Cart)=  0.07037341 RMS(Int)=  0.00469594
 Iteration  3 RMS(Cart)=  0.00484604 RMS(Int)=  0.00013221
 Iteration  4 RMS(Cart)=  0.00000196 RMS(Int)=  0.00013220
 Iteration  5 RMS(Cart)=  0.00000000 RMS(Int)=  0.00013220
 Variable       Old X    -DE/DX   Delta X   Delta X   Delta X     New X
                                 (Linear)    (Quad)   (Total)
    R1        2.07044  -0.00422  -0.00864   0.00000  -0.00864   2.06180
    R2        2.49106  -0.00011   0.02869   0.00000   0.02869   2.51976
    R3        3.30595  -0.00362   0.01325   0.00000   0.01325   3.31920
    R4        3.30399  -0.00214   0.01468   0.00000   0.01468   3.31867
    R5        2.91396   0.00824  -0.03163   0.00000  -0.03163   2.88234
    A1        1.79331  -0.00159   0.03415   0.00000   0.03411   1.82743
    A2        1.95257   0.00215  -0.01334   0.00000  -0.01300   1.93957
    A3        1.95774   0.00141  -0.01176   0.00000  -0.01150   1.94625
    A4        1.83132   0.00650   0.01729   0.00000   0.01719   1.84851
    A5        1.83299   0.00059   0.01381   0.00000   0.01379   1.84678
    A6        2.06477  -0.00783  -0.02757   0.00000  -0.02736   2.03741
    A7        2.77890   0.01797   0.35534   0.00000   0.35534   3.13424
    A8        2.98533   0.00091   0.01160   0.00000   0.01160   2.99693
    D1        1.93172   0.00254   0.04306   0.00000   0.04311   1.97483
    D2       -1.93488   0.00091  -0.04213   0.00000  -0.04218  -1.97706
    D3        2.31362  -0.00332  -0.05803   0.00000  -0.05821   2.25541
    D4       -2.03469  -0.00423  -0.01590   0.00000  -0.01602  -2.05071
         Item               Value     Threshold  Converged?
 Maximum Force            0.017971     0.000450     NO 
 RMS     Force            0.005824     0.000300     NO 
 Maximum Displacement     0.350773     0.001800     NO 
 RMS     Displacement     0.165150     0.001200     NO 
 Predicted change in Energy=-8.740525D-04
 GradGradGradGradGradGradGradGradGradGradGradGradGradGradGradGradGradGrad

                          Input orientation:                          
 ---------------------------------------------------------------------
 Center     Atomic      Atomic             Coordinates (Angstroms)
 Number     Number       Type             X           Y           Z
 ---------------------------------------------------------------------
      1          6           0       -3.547027   -0.737456   -0.044747
      2          1           0       -3.319824   -0.144382   -0.931905
      3         17           0       -0.952618   -1.606367    0.771353
      4          1           0       -2.359174   -1.145739    0.402759
      5         17           0       -4.429751   -2.196026   -0.467213
      6         17           0       -4.225990    0.253853    1.236046
 ---------------------------------------------------------------------
                    Distance matrix (angstroms):
                    1          2          3          4          5
     1  C    0.000000
     2  H    1.091057   0.000000
     3  Cl   2.855168   3.262231   0.000000
     4  H    1.333399   1.925329   1.525267   0.000000
     5  Cl   1.756447   2.378469   3.737941   2.479364   0.000000
     6  Cl   1.756165   2.383220   3.793590   2.477545   2.990738
                    6
     6  Cl   0.000000
 Stoichiometry    CH2Cl3(2)
 Framework group  C1[X(CH2Cl3)]
 Deg. of freedom    12
 Full point group                 C1      NOp   1
 Largest Abelian subgroup         C1      NOp   1
 Largest concise Abelian subgroup C1      NOp   1
                         Standard orientation:                         
 ---------------------------------------------------------------------
 Center     Atomic      Atomic             Coordinates (Angstroms)
 Number     Number       Type             X           Y           Z
 ---------------------------------------------------------------------
      1          6           0       -0.446097   -0.000630    0.525211
      2          1           0       -0.450133    0.002491    1.616257
      3         17           0        2.347904   -0.056646   -0.059943
      4          1           0        0.843542   -0.060223    0.191700
      5         17           0       -1.038968    1.523961   -0.114500
      6         17           0       -1.174631   -1.463697   -0.117276
 ---------------------------------------------------------------------
 Rotational constants (GHZ):      3.0956572      1.7482052      1.1529792
 Standard basis: 6-31G(d) (6D, 7F)
 There are    76 symmetry adapted basis functions of A   symmetry.
 Integral buffers will be    131072 words long.
 Raffenetti 2 integral format.
 Two-electron integral symmetry is turned on.
    76 basis functions,   192 primitive gaussians,    76 cartesian basis functions
    30 alpha electrons       29 beta electrons
       nuclear repulsion energy       241.7703427301 Hartrees.
 NAtoms=    6 NActive=    6 NUniq=    6 SFac= 1.00D+00 NAtFMM=   60 NAOKFM=F Big=F
 One-electron integrals computed using PRISM.
 NBasis=    76 RedAO= T  NBF=    76
 NBsUse=    76 1.00D-06 NBFU=    76
 Initial guess read from the read-write file.
 B after Tr=     0.000000    0.000000    0.000000
         Rot=    1.000000    0.000000    0.000000    0.000000 Ang=   0.00 deg.
 Initial guess orbital symmetries:
 Alpha Orbitals:
       Occupied  (A) (A) (A) (A) (A) (A) (A) (A) (A) (A) (A) (A)
                 (A) (A) (A) (A) (A) (A) (A) (A) (A) (A) (A) (A)
                 (A) (A) (A) (A) (A) (A)
       Virtual   (A) (A) (A) (A) (A) (A) (A) (A) (A) (A) (A) (A)
                 (A) (A) (A) (A) (A) (A) (A) (A) (A) (A) (A) (A)
                 (A) (A) (A) (A) (A) (A) (A) (A) (A) (A) (A) (A)
                 (A) (A) (A) (A) (A) (A) (A) (A) (A) (A)
 Beta  Orbitals:
       Occupied  (A) (A) (A) (A) (A) (A) (A) (A) (A) (A) (A) (A)
                 (A) (A) (A) (A) (A) (A) (A) (A) (A) (A) (A) (A)
                 (A) (A) (A) (A) (A)
       Virtual   (A) (A) (A) (A) (A) (A) (A) (A) (A) (A) (A) (A)
                 (A) (A) (A) (A) (A) (A) (A) (A) (A) (A) (A) (A)
                 (A) (A) (A) (A) (A) (A) (A) (A) (A) (A) (A) (A)
                 (A) (A) (A) (A) (A) (A) (A) (A) (A) (A) (A)
 Initial guess <Sx>= 0.0000 <Sy>= 0.0000 <Sz>= 0.5000 <S**2>= 0.7554 S= 0.5027
 Harris functional with IExCor=  402 diagonalized for initial guess.
 ExpMin= 1.43D-01 ExpMax= 2.52D+04 ExpMxC= 3.78D+03 IAcc=1 IRadAn=         1 AccDes= 0.00D+00
 HarFok:  IExCor=  402 AccDes= 0.00D+00 IRadAn=         1 IDoV= 1
 ScaDFX=  1.000000  1.000000  1.000000  1.000000
 FoFCou: FMM=F IPFlag=           0 FMFlag=      100000 FMFlg1=           0
         NFxFlg=           0 DoJE=T BraDBF=F KetDBF=T FulRan=T
         Omega=  0.000000  0.000000  1.000000  0.000000  0.000000 ICntrl=     500 IOpCl=  0
         NMat0=    1 NMatS0=    1 NMatT0=    0 NMatD0=    1 NMtDS0=    0 NMtDT0=    0
         I1Cent=           4 NGrid=           0.
 Petite list used in FoFCou.
 Requested convergence on RMS density matrix=1.00D-08 within 128 cycles.
 Requested convergence on MAX density matrix=1.00D-06.
 Requested convergence on             energy=1.00D-06.
 No special actions if energy rises.
 Keep R1 and R2 ints in memory in canonical form, NReq=9546585.
 Integral accuracy reduced to 1.0D-05 until final iterations.
 Initial convergence to 1.0D-05 achieved.  Increase integral accuracy.
 SCF Done:  E(UB3LYP) =  -1419.82751933     A.U. after   18 cycles
             Convg  =    0.5658D-08             -V/T =  2.0032
 <Sx>= 0.0000 <Sy>= 0.0000 <Sz>= 0.5000 <S**2>= 0.7552 S= 0.5026
 <L.S>= 0.000000000000E+00
 Annihilation of the first spin contaminant:
 S**2 before annihilation     0.7552,   after     0.7500
 Calling FoFJK, ICntrl=      2127 FMM=F ISym2X=0 I1Cent= 0 IOpClX= 1 NMat=1 NMatS=1 NMatT=0.
 ***** Axes restored to original set *****
 -------------------------------------------------------------------
 Center     Atomic                   Forces (Hartrees/Bohr)
 Number     Number              X              Y              Z
 -------------------------------------------------------------------
      1        6          -0.001808279   -0.001964382    0.002770822
      2        1           0.001669505   -0.000832975    0.001727810
      3       17           0.005047920   -0.001124785    0.001583079
      4        1          -0.008236205    0.002784653   -0.004433145
      5       17           0.001976706    0.004775342    0.002215907
      6       17           0.001350353   -0.003637854   -0.003864473
 -------------------------------------------------------------------
 Cartesian Forces:  Max     0.008236205 RMS     0.003394281

 GradGradGradGradGradGradGradGradGradGradGradGradGradGradGradGradGradGrad
 Berny optimization.
 Using GEDIIS/GDIIS optimizer.
 Internal  Forces:  Max     0.005499075 RMS     0.002742836
 Search for a local minimum.
 Step number   4 out of a maximum of   27
 All quantities printed in internal units (Hartrees-Bohrs-Radians)
 Mixed Optimization -- RFO/linear search
 Update second derivatives using D2CorX and points    1    3    2    4
 The second derivative matrix:
                          R1        R2        R3        R4        R5
           R1           0.37264
           R2           0.00660   0.14227
           R3           0.00628  -0.01677   0.27774
           R4           0.00550  -0.01834  -0.01945   0.27472
           R5          -0.00418   0.01986   0.02185   0.02379   0.14449
           A1           0.02194  -0.01913  -0.01191  -0.01300   0.02144
           A2          -0.01749   0.00855   0.00182   0.00227  -0.00977
           A3          -0.01062   0.00635   0.00223   0.00250  -0.00657
           A4           0.00218  -0.00722  -0.00620  -0.00547   0.00640
           A5          -0.00190  -0.00452  -0.00545  -0.00556   0.00292
           A6          -0.01406   0.01549   0.00840   0.00710  -0.01060
           A7           0.00140  -0.00273   0.00044   0.00513   0.00288
           A8          -0.00248   0.00027  -0.00067  -0.00048  -0.00049
           D1          -0.01402   0.00088  -0.00509  -0.00462  -0.00132
           D2           0.01156  -0.00058   0.00466   0.00475   0.00084
           D3           0.01520  -0.00090   0.00549   0.00485   0.00140
           D4           0.00364  -0.00032   0.00083   0.00010   0.00056
                          A1        A2        A3        A4        A5
           A1           0.13460
           A2           0.00879   0.16060
           A3           0.00954  -0.00303   0.15612
           A4          -0.01601   0.01103   0.00727   0.15720
           A5          -0.01540   0.01283   0.00733  -0.00112   0.16306
           A6           0.04611  -0.03192  -0.02221   0.01293   0.00674
           A7          -0.00056  -0.00135   0.00050   0.00267  -0.00518
           A8          -0.00047   0.00126   0.00031   0.00142   0.00179
           D1          -0.00122   0.00551   0.00069   0.00779   0.01017
           D2           0.00124  -0.00469  -0.00056  -0.00604  -0.00876
           D3           0.00142  -0.00603  -0.00082  -0.00853  -0.01093
           D4           0.00018  -0.00134  -0.00026  -0.00249  -0.00218
                          A6        A7        A8        D1        D2
           A6           0.19581
           A7           0.00319   0.03388
           A8          -0.00363   0.00053   0.00265
           D1          -0.02258   0.00089   0.00163   0.00961
           D2           0.01876   0.00221  -0.00128  -0.00577   0.00724
           D3           0.02437  -0.00176  -0.00180  -0.00796   0.00628
           D4           0.00561  -0.00397  -0.00052  -0.00219   0.00142
                          D3        D4
           D3           0.01115
           D4           0.00250   0.00346
 ITU=  0 -1  1  0
 Use linear search instead of GDIIS.
     Eigenvalues ---    0.00239   0.03235   0.04050   0.05519   0.09973
     Eigenvalues ---    0.11855   0.16195   0.16286   0.22738   0.27048
     Eigenvalues ---    0.29581   0.37365
 RFO step:  Lambda=-1.22042812D-03 EMin= 2.38566105D-03
 Quartic linear search produced a step of -0.05316.
 Iteration  1 RMS(Cart)=  0.03774337 RMS(Int)=  0.00143205
 Iteration  2 RMS(Cart)=  0.00226038 RMS(Int)=  0.00010291
 Iteration  3 RMS(Cart)=  0.00000387 RMS(Int)=  0.00010285
 Iteration  4 RMS(Cart)=  0.00000000 RMS(Int)=  0.00010285
 Variable       Old X    -DE/DX   Delta X   Delta X   Delta X     New X
                                 (Linear)    (Quad)   (Total)
    R1        2.06180  -0.00151  -0.00017  -0.00132  -0.00149   2.06031
    R2        2.51976  -0.00430   0.00057  -0.05364  -0.05307   2.46669
    R3        3.31920  -0.00550   0.00026  -0.03455  -0.03429   3.28492
    R4        3.31867  -0.00539   0.00029  -0.03605  -0.03576   3.28291
    R5        2.88234   0.00538  -0.00063   0.06238   0.06175   2.94409
    A1        1.82743  -0.00151   0.00068  -0.04339  -0.04260   1.78483
    A2        1.93957   0.00145  -0.00028   0.02167   0.02118   1.96075
    A3        1.94625   0.00086  -0.00025   0.01259   0.01213   1.95838
    A4        1.84851   0.00106   0.00035  -0.00073  -0.00032   1.84819
    A5        1.84678   0.00100   0.00027   0.00228   0.00252   1.84930
    A6        2.03741  -0.00278  -0.00056  -0.00039  -0.00114   2.03627
    A7        3.13424   0.00160   0.00703   0.03465   0.04168   3.17592
    A8        2.99693   0.00028   0.00023   0.10256   0.10279   3.09972
    D1        1.97483  -0.00051   0.00085  -0.04098  -0.04027   1.93456
    D2       -1.97706   0.00082  -0.00083   0.04377   0.04299  -1.93408
    D3        2.25541   0.00038  -0.00114   0.04329   0.04225   2.29766
    D4       -2.05071  -0.00043  -0.00031  -0.00049  -0.00073  -2.05144
         Item               Value     Threshold  Converged?
 Maximum Force            0.005499     0.000450     NO 
 RMS     Force            0.002743     0.000300     NO 
 Maximum Displacement     0.090642     0.001800     NO 
 RMS     Displacement     0.038872     0.001200     NO 
 Predicted change in Energy=-6.288564D-04
 GradGradGradGradGradGradGradGradGradGradGradGradGradGradGradGradGradGrad

                          Input orientation:                          
 ---------------------------------------------------------------------
 Center     Atomic      Atomic             Coordinates (Angstroms)
 Number     Number       Type             X           Y           Z
 ---------------------------------------------------------------------
      1          6           0       -3.555367   -0.743682   -0.049386
      2          1           0       -3.304412   -0.148356   -0.927620
      3         17           0       -0.954359   -1.579919    0.804856
      4          1           0       -2.382462   -1.149620    0.354794
      5         17           0       -4.442301   -2.181928   -0.457425
      6         17           0       -4.195483    0.227386    1.241075
 ---------------------------------------------------------------------
                    Distance matrix (angstroms):
                    1          2          3          4          5
     1  C    0.000000
     2  H    1.090269   0.000000
     3  Cl   2.862562   3.251706   0.000000
     4  H    1.305317   1.870055   1.557945   0.000000
     5  Cl   1.738304   2.377244   3.757859   2.443009   0.000000
     6  Cl   1.737242   2.374537   3.736512   2.443089   2.958143
                    6
     6  Cl   0.000000
 Stoichiometry    CH2Cl3(2)
 Framework group  C1[X(CH2Cl3)]
 Deg. of freedom    12
 Full point group                 C1      NOp   1
 Largest Abelian subgroup         C1      NOp   1
 Largest concise Abelian subgroup C1      NOp   1
                         Standard orientation:                         
 ---------------------------------------------------------------------
 Center     Atomic      Atomic             Coordinates (Angstroms)
 Number     Number       Type             X           Y           Z
 ---------------------------------------------------------------------
      1          6           0       -0.459085   -0.000491    0.530640
      2          1           0       -0.441440   -0.001384    1.620766
      3         17           0        2.341631    0.021277   -0.060780
      4          1           0        0.811598    0.022053    0.232798
      5         17           0       -1.126233    1.467691   -0.118247
      6         17           0       -1.075142   -1.490011   -0.117291
 ---------------------------------------------------------------------
 Rotational constants (GHZ):      3.1562609      1.7605979      1.1674598
 Standard basis: 6-31G(d) (6D, 7F)
 There are    76 symmetry adapted basis functions of A   symmetry.
 Integral buffers will be    131072 words long.
 Raffenetti 2 integral format.
 Two-electron integral symmetry is turned on.
    76 basis functions,   192 primitive gaussians,    76 cartesian basis functions
    30 alpha electrons       29 beta electrons
       nuclear repulsion energy       243.4070728575 Hartrees.
 NAtoms=    6 NActive=    6 NUniq=    6 SFac= 1.00D+00 NAtFMM=   60 NAOKFM=F Big=F
 One-electron integrals computed using PRISM.
 NBasis=    76 RedAO= T  NBF=    76
 NBsUse=    76 1.00D-06 NBFU=    76
 Initial guess read from the read-write file.
 B after Tr=     0.000000    0.000000    0.000000
         Rot=    1.000000    0.000000    0.000000    0.000000 Ang=   0.00 deg.
 Initial guess orbital symmetries:
 Alpha Orbitals:
       Occupied  (A) (A) (A) (A) (A) (A) (A) (A) (A) (A) (A) (A)
                 (A) (A) (A) (A) (A) (A) (A) (A) (A) (A) (A) (A)
                 (A) (A) (A) (A) (A) (A)
       Virtual   (A) (A) (A) (A) (A) (A) (A) (A) (A) (A) (A) (A)
                 (A) (A) (A) (A) (A) (A) (A) (A) (A) (A) (A) (A)
                 (A) (A) (A) (A) (A) (A) (A) (A) (A) (A) (A) (A)
                 (A) (A) (A) (A) (A) (A) (A) (A) (A) (A)
 Beta  Orbitals:
       Occupied  (A) (A) (A) (A) (A) (A) (A) (A) (A) (A) (A) (A)
                 (A) (A) (A) (A) (A) (A) (A) (A) (A) (A) (A) (A)
                 (A) (A) (A) (A) (A)
       Virtual   (A) (A) (A) (A) (A) (A) (A) (A) (A) (A) (A) (A)
                 (A) (A) (A) (A) (A) (A) (A) (A) (A) (A) (A) (A)
                 (A) (A) (A) (A) (A) (A) (A) (A) (A) (A) (A) (A)
                 (A) (A) (A) (A) (A) (A) (A) (A) (A) (A) (A)
 Initial guess <Sx>= 0.0000 <Sy>= 0.0000 <Sz>= 0.5000 <S**2>= 0.7552 S= 0.5026
 Harris functional with IExCor=  402 diagonalized for initial guess.
 ExpMin= 1.43D-01 ExpMax= 2.52D+04 ExpMxC= 3.78D+03 IAcc=1 IRadAn=         1 AccDes= 0.00D+00
 HarFok:  IExCor=  402 AccDes= 0.00D+00 IRadAn=         1 IDoV= 1
 ScaDFX=  1.000000  1.000000  1.000000  1.000000
 FoFCou: FMM=F IPFlag=           0 FMFlag=      100000 FMFlg1=           0
         NFxFlg=           0 DoJE=T BraDBF=F KetDBF=T FulRan=T
         Omega=  0.000000  0.000000  1.000000  0.000000  0.000000 ICntrl=     500 IOpCl=  0
         NMat0=    1 NMatS0=    1 NMatT0=    0 NMatD0=    1 NMtDS0=    0 NMtDT0=    0
         I1Cent=           4 NGrid=           0.
 Petite list used in FoFCou.
 Requested convergence on RMS density matrix=1.00D-08 within 128 cycles.
 Requested convergence on MAX density matrix=1.00D-06.
 Requested convergence on             energy=1.00D-06.
 No special actions if energy rises.
 Keep R1 and R2 ints in memory in canonical form, NReq=9546585.
 Integral accuracy reduced to 1.0D-05 until final iterations.
 Initial convergence to 1.0D-05 achieved.  Increase integral accuracy.
 SCF Done:  E(UB3LYP) =  -1419.82817826     A.U. after   15 cycles
             Convg  =    0.5497D-08             -V/T =  2.0032
 <Sx>= 0.0000 <Sy>= 0.0000 <Sz>= 0.5000 <S**2>= 0.7551 S= 0.5025
 <L.S>= 0.000000000000E+00
 Annihilation of the first spin contaminant:
 S**2 before annihilation     0.7551,   after     0.7500
 Calling FoFJK, ICntrl=      2127 FMM=F ISym2X=0 I1Cent= 0 IOpClX= 1 NMat=1 NMatS=1 NMatT=0.
 ***** Axes restored to original set *****
 -------------------------------------------------------------------
 Center     Atomic                   Forces (Hartrees/Bohr)
 Number     Number              X              Y              Z
 -------------------------------------------------------------------
      1        6           0.009255006   -0.001616832    0.000514440
      2        1          -0.001070944   -0.000176429    0.000074618
      3       17           0.004276385   -0.001156120    0.000790796
      4        1          -0.007910673    0.002607902   -0.002033019
      5       17          -0.002375618   -0.001895106   -0.001258232
      6       17          -0.002174156    0.002236584    0.001911396
 -------------------------------------------------------------------
 Cartesian Forces:  Max     0.009255006 RMS     0.003396738

 GradGradGradGradGradGradGradGradGradGradGradGradGradGradGradGradGradGrad
 Berny optimization.
 Using GEDIIS/GDIIS optimizer.
 Internal  Forces:  Max     0.004467619 RMS     0.001977227
 Search for a local minimum.
 Step number   5 out of a maximum of   27
 All quantities printed in internal units (Hartrees-Bohrs-Radians)
 Mixed Optimization -- RFO/linear search
 Update second derivatives using D2CorX and points    1    3    2    4    5
 DE= -6.59D-04 DEPred=-6.29D-04 R= 1.05D+00
 SS=  1.41D+00  RLast= 1.70D-01 DXNew= 4.2426D-01 5.1143D-01
 Trust test= 1.05D+00 RLast= 1.70D-01 DXMaxT set to 4.24D-01
 The second derivative matrix:
                          R1        R2        R3        R4        R5
           R1           0.37114
           R2           0.00557   0.12816
           R3           0.00105  -0.03285   0.31509
           R4           0.00093  -0.03383   0.02104   0.31811
           R5          -0.00769   0.03824   0.03934   0.04176   0.12433
           A1           0.02193  -0.02629  -0.01220  -0.01295   0.02941
           A2          -0.01649   0.01137  -0.00192  -0.00207  -0.01132
           A3          -0.00991   0.00813  -0.00533  -0.00554  -0.00801
           A4           0.00158  -0.00412   0.00145   0.00209   0.00760
           A5          -0.00138  -0.00457   0.00535   0.00519   0.00482
           A6          -0.01563   0.01337   0.00032  -0.00016  -0.01591
           A7           0.00224   0.00510   0.00147   0.00493   0.00450
           A8          -0.00142   0.00035  -0.00901  -0.00935   0.00031
           D1          -0.01403  -0.00184   0.00180   0.00239   0.00496
           D2           0.01136   0.00211  -0.00476  -0.00487  -0.00331
           D3           0.01605   0.00184  -0.01154  -0.01272  -0.00531
           D4           0.00469  -0.00027  -0.00678  -0.00785  -0.00201
                          A1        A2        A3        A4        A5
           A1           0.13228
           A2           0.00887   0.16089
           A3           0.00902  -0.00214   0.15756
           A4          -0.01508   0.01030   0.00636   0.15928
           A5          -0.01440   0.01120   0.00551  -0.00040   0.16428
           A6           0.04604  -0.03062  -0.02120   0.01126   0.00726
           A7          -0.00032  -0.00134   0.00124   0.00468  -0.00738
           A8          -0.00171   0.00218   0.00175   0.00055  -0.00012
           D1          -0.00191   0.00468  -0.00060   0.00964   0.01135
           D2           0.00112  -0.00334   0.00124  -0.00705  -0.01036
           D3           0.00092  -0.00401   0.00219  -0.01161  -0.01406
           D4          -0.00020  -0.00067   0.00094  -0.00457  -0.00370
                          A6        A7        A8        D1        D2
           A6           0.19460
           A7           0.00279   0.03836
           A8          -0.00215   0.00113   0.00385
           D1          -0.02313   0.00161  -0.00013   0.01041
           D2           0.01865   0.00382   0.00080  -0.00670   0.00885
           D3           0.02628  -0.00193   0.00154  -0.01068   0.00939
           D4           0.00763  -0.00575   0.00074  -0.00397   0.00292
                          D3        D4
           D3           0.01774
           D4           0.00597   0.00543
 ITU=  1  0 -1  1  0
 Use linear search instead of GDIIS.
     Eigenvalues ---    0.00281   0.02969   0.03579   0.06108   0.08889
     Eigenvalues ---    0.10351   0.16247   0.16566   0.22668   0.29554
     Eigenvalues ---    0.36108   0.37205
 RFO step:  Lambda=-8.86797679D-04 EMin= 2.81316504D-03
 Quartic linear search produced a step of  0.06713.
 Iteration  1 RMS(Cart)=  0.06961245 RMS(Int)=  0.02859708
 Iteration  2 RMS(Cart)=  0.03356046 RMS(Int)=  0.00134935
 Iteration  3 RMS(Cart)=  0.00199747 RMS(Int)=  0.00004563
 Iteration  4 RMS(Cart)=  0.00000296 RMS(Int)=  0.00004556
 Iteration  5 RMS(Cart)=  0.00000000 RMS(Int)=  0.00004556
 Variable       Old X    -DE/DX   Delta X   Delta X   Delta X     New X
                                 (Linear)    (Quad)   (Total)
    R1        2.06031  -0.00040  -0.00010   0.00048   0.00038   2.06069
    R2        2.46669  -0.00411  -0.00356  -0.06843  -0.07200   2.39469
    R3        3.28492   0.00308  -0.00230  -0.01408  -0.01638   3.26854
    R4        3.28291   0.00347  -0.00240  -0.01393  -0.01633   3.26659
    R5        2.94409   0.00447   0.00415   0.07512   0.07926   3.02335
    A1        1.78483  -0.00013  -0.00286  -0.03295  -0.03575   1.74908
    A2        1.96075  -0.00014   0.00142   0.00414   0.00554   1.96629
    A3        1.95838  -0.00052   0.00081   0.00067   0.00145   1.95983
    A4        1.84819   0.00056  -0.00002   0.00889   0.00877   1.85696
    A5        1.84930   0.00131   0.00017   0.01328   0.01337   1.86267
    A6        2.03627  -0.00077  -0.00008   0.00224   0.00207   2.03835
    A7        3.17592   0.00011   0.00280   0.00845   0.01125   3.18717
    A8        3.09972  -0.00105   0.00690  -0.31919  -0.31229   2.78743
    D1        1.93456   0.00009  -0.00270  -0.03194  -0.03470   1.89987
    D2       -1.93408  -0.00033   0.00289   0.03114   0.03407  -1.90001
    D3        2.29766  -0.00152   0.00284   0.00911   0.01193   2.30960
    D4       -2.05144  -0.00119  -0.00005  -0.02203  -0.02214  -2.07358
         Item               Value     Threshold  Converged?
 Maximum Force            0.004468     0.000450     NO 
 RMS     Force            0.001977     0.000300     NO 
 Maximum Displacement     0.216177     0.001800     NO 
 RMS     Displacement     0.100951     0.001200     NO 
 Predicted change in Energy=-4.959249D-04
 GradGradGradGradGradGradGradGradGradGradGradGradGradGradGradGradGradGrad

                          Input orientation:                          
 ---------------------------------------------------------------------
 Center     Atomic      Atomic             Coordinates (Angstroms)
 Number     Number       Type             X           Y           Z
 ---------------------------------------------------------------------
      1          6           0       -3.556041   -0.757126   -0.017242
      2          1           0       -3.207201   -0.185481   -0.877854
      3         17           0       -0.915244   -1.549933    0.690460
      4          1           0       -2.449515   -1.171234    0.440967
      5         17           0       -4.453690   -2.164130   -0.471335
      6         17           0       -4.252694    0.251786    1.201298
 ---------------------------------------------------------------------
                    Distance matrix (angstroms):
                    1          2          3          4          5
     1  C    0.000000
     2  H    1.090468   0.000000
     3  Cl   2.846610   3.094253   0.000000
     4  H    1.267217   1.812481   1.599889   0.000000
     5  Cl   1.729635   2.373614   3.774599   2.415544   0.000000
[...]
                     1                      2                      3
                     A                      A                      A
 Frequencies --    46.1356                65.5966               133.5986
 Red. masses --    18.3183                17.3458                 2.5415
 Frc consts  --     0.0230                 0.0440                 0.0267
 IR Inten    --     0.8499                11.7174                 5.4988
  Atom  AN      X      Y      Z        X      Y      Z        X      Y      Z
     1   6     0.00  -0.30   0.00    -0.02   0.00  -0.23    -0.20   0.00   0.26
     2   1     0.00  -0.29   0.00     0.29   0.00  -0.22    -0.63   0.00   0.25
     3  17     0.00   0.34   0.00     0.56   0.00   0.03     0.08   0.00  -0.04
     4   1     0.00  -0.59   0.00    -0.18   0.00  -0.57    -0.09   0.00   0.65
     5  17     0.41  -0.11  -0.02    -0.28   0.00   0.03     0.01   0.00  -0.03
     6  17    -0.41  -0.11   0.02    -0.28   0.00   0.03     0.01   0.00  -0.03
                     4                      5                      6
                     A                      A                      A
 Frequencies --   291.3300               722.1901               757.7974
 Red. masses --    18.7287                 7.5476                 8.2148
 Frc consts  --     0.9365                 2.3193                 2.7794
 IR Inten    --     1.8168                45.7212               169.4019
  Atom  AN      X      Y      Z        X      Y      Z        X      Y      Z
     1   6    -0.32   0.00  -0.24     0.50   0.00   0.40     0.00   0.70   0.00
     2   1    -0.38   0.00  -0.25     0.44   0.00   0.40     0.00   0.50   0.00
     3  17     0.01   0.00   0.00    -0.01   0.00   0.00     0.00   0.00   0.00
     4   1    -0.35   0.00  -0.21     0.39   0.00   0.15     0.00   0.45   0.00
     5  17     0.06   0.48   0.05    -0.09   0.12  -0.08     0.07  -0.13   0.06
     6  17     0.06  -0.48   0.05    -0.09  -0.12  -0.08    -0.07  -0.13  -0.06
                     7                      8                      9
                     A                      A                      A
 Frequencies --   903.7754              1157.8982              1293.6533
 Red. masses --     1.3759                 1.0216                 1.1091
 Frc consts  --     0.6621                 0.8070                 1.0936
 IR Inten    --     2.7889                 0.2120                27.5072
  Atom  AN      X      Y      Z        X      Y      Z        X      Y      Z
     1   6    -0.11   0.00   0.13     0.00  -0.02   0.00     0.00  -0.09   0.00
     2   1     0.63   0.00   0.15     0.00  -0.52   0.00     0.00   0.86   0.00
     3  17     0.00   0.00   0.00     0.00   0.00   0.00     0.00   0.00   0.00
     4   1    -0.38   0.00  -0.64     0.00   0.85   0.00     0.00   0.50   0.00
     5  17     0.01   0.00  -0.02     0.01   0.00  -0.01     0.01   0.00   0.01
     6  17     0.01   0.00  -0.02    -0.01   0.00   0.01    -0.01   0.00  -0.01
                    10                     11                     12
                     A                      A                      A
 Frequencies --  1393.8464              2706.5101              3181.8476
 Red. masses --     1.0766                 1.0766                 1.0889
 Frc consts  --     1.2323                 4.6464                 6.4955
 IR Inten    --   124.7131              1672.0169                 0.4677
  Atom  AN      X      Y      Z        X      Y      Z        X      Y      Z
     1   6    -0.07   0.00  -0.04    -0.08   0.00   0.02     0.01   0.00  -0.09
     2   1     0.73   0.00   0.00    -0.05   0.00   0.08    -0.03   0.00   0.99
     3  17     0.00   0.00   0.00     0.00   0.00   0.00     0.00   0.00   0.00
     4   1     0.23   0.00   0.64     0.92   0.00  -0.36    -0.06   0.00   0.01
     5  17     0.00   0.00   0.00     0.00   0.00   0.00     0.00   0.00   0.00
     6  17     0.00   0.00   0.00     0.00   0.00   0.00     0.00   0.00   0.00

 -------------------
 - Thermochemistry -
 -------------------
 Temperature   298.150 Kelvin.  Pressure   1.00000 Atm.
 Atom     1 has atomic number  6 and mass  12.00000
 Atom     2 has atomic number  1 and mass   1.00783
 Atom     3 has atomic number 17 and mass  34.96885
 Atom     4 has atomic number  1 and mass   1.00783
 Atom     5 has atomic number 17 and mass  34.96885
 Atom     6 has atomic number 17 and mass  34.96885
 Molecular mass:   118.92221 amu.
 Principal axes and moments of inertia in atomic units:
                           1         2         3
     Eigenvalues --   576.748941298.133581830.38874
           X            1.00000   0.00000  -0.00234
           Y            0.00000   1.00000   0.00000
           Z            0.00234   0.00000   1.00000
 This molecule is an asymmetric top.
 Rotational symmetry number  1.
 Warning -- assumption of classical behavior for rotation
           may cause significant error
 Rotational temperatures (Kelvin)      0.15018     0.06672     0.04732
 Rotational constants (GHZ):           3.12916     1.39026     0.98599
 Zero-point vibrational energy      75688.8 (Joules/Mol)
                                   18.09006 (Kcal/Mol)
 Warning -- explicit consideration of   4 degrees of freedom as
           vibrations may cause significant error
 Vibrational temperatures:     66.38    94.38   192.22   419.16  1039.07
          (Kelvin)           1090.30  1300.33  1665.96  1861.28  2005.43
                             3894.06  4577.96
 
 Zero-point correction=                           0.028828 (Hartree/Particle)
 Thermal correction to Energy=                    0.034698
 Thermal correction to Enthalpy=                  0.035642
 Thermal correction to Gibbs Free Energy=        -0.004600
 Sum of electronic and zero-point Energies=          -1419.804676
 Sum of electronic and thermal Energies=             -1419.798807
 Sum of electronic and thermal Enthalpies=           -1419.797863
 Sum of electronic and thermal Free Energies=        -1419.838104
 
                     E (Thermal)             CV                S
                      KCal/Mol        Cal/Mol-Kelvin    Cal/Mol-Kelvin
 Total                   21.773             16.020             84.695
 Electronic               0.000              0.000              1.377
 Translational            0.889              2.981             40.235
 Rotational               0.889              2.981             28.707
 Vibrational             19.996             10.059             14.376
 Vibration     1          0.595              1.979              4.977
 Vibration     2          0.597              1.971              4.281
 Vibration     3          0.613              1.920              2.894
 Vibration     4          0.687              1.690              1.466
                       Q            Log10(Q)             Ln(Q)
 Total Bot       0.130508D+03          2.115637          4.871435
 Total V=0       0.237534D+16         15.375725         35.403916
 Vib (Bot)       0.305483D-11        -11.515014        -26.514299
 Vib (Bot)    1  0.448238D+01          0.651509          1.500155
 Vib (Bot)    2  0.314593D+01          0.497749          1.146109
 Vib (Bot)    3  0.152456D+01          0.183145          0.421706
 Vib (Bot)    4  0.655938D+00         -0.183137         -0.421689
 Vib (V=0)       0.556000D+02          1.745075          4.018183
 Vib (V=0)    1  0.501018D+01          0.699854          1.611473
 Vib (V=0)    2  0.368541D+01          0.566486          1.304383
 Vib (V=0)    3  0.210446D+01          0.323140          0.744058
 Vib (V=0)    4  0.132478D+01          0.122142          0.281243
 Electronic      0.200000D+01          0.301030          0.693147
 Translational   0.509741D+08          7.707350         17.746828
 Rotational      0.419055D+06          5.622271         12.945758
 ***** Axes restored to original set *****
 -------------------------------------------------------------------
 Center     Atomic                   Forces (Hartrees/Bohr)
 Number     Number              X              Y              Z
 -------------------------------------------------------------------
      1        6           0.000019936    0.000012171    0.000007790
      2        1           0.000013187   -0.000003913   -0.000004687
      3       17          -0.000015030   -0.000013315    0.000018969
      4        1          -0.000008927    0.000003661    0.000003854
      5       17          -0.000009195   -0.000004723   -0.000016704
      6       17           0.000000029    0.000006119   -0.000009222
 -------------------------------------------------------------------
 Cartesian Forces:  Max     0.000019936 RMS     0.000011047

 GradGradGradGradGradGradGradGradGradGradGradGradGradGradGradGradGradGrad
 Berny optimization.
 Internal  Forces:  Max     0.000015503 RMS     0.000005706
 Search for a local minimum.
 Step number   1 out of a maximum of    2
 All quantities printed in internal units (Hartrees-Bohrs-Radians)
 Second derivative matrix not updated -- analytic derivatives used.
 The second derivative matrix:
                          R1        R2        R3        R4        R5
           R1           0.35630
           R2           0.00216   0.29354
           R3           0.00464   0.01039   0.21439
           R4           0.00461   0.01043   0.03072   0.21434
           R5          -0.00001   0.02172  -0.00451  -0.00448   0.00763
           A1           0.00402   0.00479  -0.00515  -0.00910  -0.00091
           A2          -0.00103  -0.00150   0.01193  -0.01617   0.00026
           A3          -0.00100  -0.00404  -0.01464   0.01455   0.00136
           A4          -0.00166   0.00058   0.01079  -0.01532  -0.00056
           A5          -0.00255   0.00144  -0.01459   0.01218  -0.00141
           A6           0.00239  -0.00080   0.01099   0.01286   0.00110
           A7           0.00035  -0.00010  -0.00059   0.00017  -0.00044
           A8          -0.00083   0.00065   0.00024   0.00049   0.00102
           D1           0.00329   0.00521   0.00645  -0.02831  -0.00126
           D2          -0.00281  -0.00431   0.02235  -0.00397   0.00114
           D3          -0.00043  -0.00555   0.01214  -0.00107   0.00213
           D4           0.00238  -0.00123  -0.01021   0.00290   0.00099
                          A1        A2        A3        A4        A5
           A1           0.01887
           A2          -0.00906   0.05317
           A3          -0.01386  -0.02554   0.08956
           A4          -0.00855   0.00387   0.02672   0.04919
           A5          -0.01446   0.02778  -0.03291  -0.02564   0.08769
           A6           0.02760  -0.04941  -0.04486  -0.04506  -0.04119
           A7          -0.00018  -0.00078   0.00083   0.00392  -0.00416
           A8           0.00089  -0.00011   0.00079   0.00044  -0.00231
           D1           0.01271   0.02040  -0.01537   0.01968  -0.01653
           D2          -0.00676   0.00906  -0.01380   0.01007  -0.01427
           D3          -0.00296   0.01535   0.00304  -0.00627  -0.01747
           D4           0.00379   0.00629   0.01683  -0.01634  -0.00321
                          A6        A7        A8        D1        D2
           A6           0.15080
           A7           0.00034   0.00993
           A8           0.00031   0.00024   0.00370
           D1          -0.01951   0.00157   0.00125   0.03736
           D2           0.01483   0.00210  -0.00019   0.00257   0.02362
           D3           0.00722  -0.00016   0.00067   0.00130   0.01173
           D4          -0.00761  -0.00226   0.00086  -0.00127  -0.01189
                          D3        D4
           D3           0.02728
           D4           0.01555   0.02745
 ITU=  0
     Eigenvalues ---    0.00307   0.00565   0.00938   0.04055   0.06229
     Eigenvalues ---    0.07117   0.14971   0.20665   0.20816   0.25202
     Eigenvalues ---    0.29908   0.35709
 Angle between quadratic step and forces=  67.82 degrees.
 Linear search not attempted -- first point.
 Iteration  1 RMS(Cart)=  0.00033870 RMS(Int)=  0.00000006
 Iteration  2 RMS(Cart)=  0.00000007 RMS(Int)=  0.00000000
 Variable       Old X    -DE/DX   Delta X   Delta X   Delta X     New X
                                 (Linear)    (Quad)   (Total)
    R1        2.05704   0.00000   0.00000   0.00000   0.00000   2.05704
    R2        2.10891  -0.00001   0.00000   0.00002   0.00002   2.10893
    R3        3.35342   0.00002   0.00000   0.00006   0.00006   3.35348
    R4        3.35353   0.00000   0.00000  -0.00005  -0.00005   3.35348
    R5        3.93772  -0.00001   0.00000  -0.00088  -0.00088   3.93684
    A1        1.90339   0.00000   0.00000  -0.00003  -0.00003   1.90336
    A2        1.90525   0.00000   0.00000  -0.00004  -0.00004   1.90521
    A3        1.90514   0.00000   0.00000   0.00007   0.00007   1.90521
    A4        1.87743   0.00000   0.00000   0.00000   0.00000   1.87743
    A5        1.87746   0.00000   0.00000  -0.00003  -0.00003   1.87743
    A6        1.99329   0.00000   0.00000   0.00002   0.00002   1.99332
    A7        3.22712   0.00000   0.00000  -0.00051  -0.00051   3.22662
    A8        2.83436   0.00000   0.00000  -0.00012  -0.00012   2.83424
    D1        2.06302   0.00000   0.00000  -0.00006  -0.00006   2.06297
    D2       -2.06298   0.00000   0.00000   0.00001   0.00001  -2.06297
    D3        2.13788   0.00000   0.00000   0.00002   0.00002   2.13790
    D4       -2.08232   0.00000   0.00000   0.00000   0.00000  -2.08232
         Item               Value     Threshold  Converged?
 Maximum Force            0.000016     0.000450     YES
 RMS     Force            0.000006     0.000300     YES
 Maximum Displacement     0.000763     0.001800     YES
 RMS     Displacement     0.000339     0.001200     YES
 Predicted change in Energy=-4.579968D-09
 Optimization completed.
    -- Stationary point found.
                           ----------------------------
                           !   Optimized Parameters   !
                           ! (Angstroms and Degrees)  !
 --------------------------                            --------------------------
 ! Name  Definition              Value          Derivative Info.                !
 --------------------------------------------------------------------------------
 ! R1    R(1,2)                  1.0885         -DE/DX =    0.0                 !
 ! R2    R(1,4)                  1.116          -DE/DX =    0.0                 !
 ! R3    R(1,5)                  1.7746         -DE/DX =    0.0                 !
 ! R4    R(1,6)                  1.7746         -DE/DX =    0.0                 !
 ! R5    R(3,4)                  2.0838         -DE/DX =    0.0                 !
 ! A1    A(2,1,4)              109.056          -DE/DX =    0.0                 !
 ! A2    A(2,1,5)              109.1629         -DE/DX =    0.0                 !
 ! A3    A(2,1,6)              109.1568         -DE/DX =    0.0                 !
 ! A4    A(4,1,5)              107.5691         -DE/DX =    0.0                 !
 ! A5    A(4,1,6)              107.5706         -DE/DX =    0.0                 !
 ! A6    A(5,1,6)              114.2073         -DE/DX =    0.0                 !
 ! A7    L(1,4,3,5,-1)         184.9005         -DE/DX =    0.0                 !
 ! A8    L(1,4,3,5,-2)         162.3966         -DE/DX =    0.0                 !
 ! D1    D(2,1,5,4)            118.2024         -DE/DX =    0.0                 !
 ! D2    D(2,1,6,4)           -118.1999         -DE/DX =    0.0                 !
 ! D3    D(2,1,6,5)            122.4917         -DE/DX =    0.0                 !
 ! D4    D(4,1,6,5)           -119.3084         -DE/DX =    0.0                 !
 --------------------------------------------------------------------------------
 GradGradGradGradGradGradGradGradGradGradGradGradGradGradGradGradGradGrad

 1\1\GINC-STUDENT-THINKCENTRE-M93P\Freq\UB3LYP\6-31G(d)\C1H2Cl3(2)\STUD
 ENT\23-Feb-2021\0\\#N Geom=AllCheck Guess=TCheck SCRF=Check GenChk UB3
 LYP/6-31G(d) Freq\\reaction new with updated version\\0,2\C,-3.5349968
 941,-0.7559297117,-0.0308898799\H,-3.3152816601,-0.1589851165,-0.91423
 60328\Cl,-0.6009402815,-1.6419933696,0.8210007271\H,-2.5789500174,-1.1
 467043056,0.3918308745\Cl,-4.5226074183,-2.1527495002,-0.5026587453\Cl
 ,-4.2816077868,0.2802453096,1.2012473419\\Version=EM64L-G09RevC.01\Sta
 te=2-A\HF=-1419.8335047\S2=0.752749\S2-1=0.\S2A=0.750005\RMSD=1.533e-0
 9\RMSF=1.105e-05\ZeroPoint=0.0288283\Thermal=0.0346976\Dipole=-0.14770
 4,0.2970002,-0.4037016\DipoleDeriv=1.6946959,-0.1779915,0.2185954,-0.1
 125897,1.0702265,0.5425512,0.1244379,0.5519825,0.6334644,-0.1516688,0.
 0198417,-0.0144177,-0.0053133,-0.0302749,-0.031266,0.0215674,-0.034844
 5,-0.006025,0.3938203,-0.1141,0.091441,-0.131514,-0.0813336,-0.0271227
 ,0.1165569,-0.0296325,-0.0874242,-1.1192874,0.2611073,-0.2182268,0.352
 7776,-0.0734658,0.0226306,-0.3490574,0.0355136,-0.0243069,-0.4613296,-
 0.2087697,-0.1925711,-0.367896,-0.4440788,-0.2923769,-0.1667384,-0.146
 5121,-0.2038658,-0.3562305,0.2199122,0.1151792,0.2645354,-0.4410735,-0
 .2144162,0.2532337,-0.376507,-0.3118425\Polar=105.0667208,-13.7889385,
 47.7478814,12.3801716,9.638244,37.6301098\PG=C01 [X(C1H2Cl3)]\NImag=0\
 \0.38322018,-0.01856653,0.35398396,0.00896274,-0.13326315,0.44777610,-
 0.05123089,-0.02843108,0.04256739,0.05796762,-0.02922135,-0.13174379,0
 .13906255,0.03213710,0.14795058,0.04369637,0.13895084,-0.24180468,-0.0
 4598154,-0.13400336,0.25510295,-0.02700234,0.00722908,-0.00658765,0.00
 276131,-0.00045214,0.00026253,0.00670056,0.00677085,-0.00252610,0.0018
 0291,-0.00049506,0.00023758,-0.00019379,-0.00176284,0.00110994,-0.0059
 5635,0.00174435,-0.00224123,0.00032616,-0.00020027,0.00029258,0.001658
 82,-0.00044941,0.00102896,-0.17367854,0.06635480,-0.07454236,0.0010341
 8,-0.00105494,0.00181238,0.01148362,-0.00293729,0.00250105,0.19319796,
 0.06315070,-0.06400831,0.03838035,0.01503910,-0.00309455,0.00686430,-0
 .00486278,0.00056384,-0.00094534,-0.06575973,0.07895201,-0.06994189,0.
 03792081,-0.07512429,-0.02116899,0.00914066,-0.00685425,0.00523807,-0.
 00121286,0.00041932,0.07388964,-0.02938117,0.08334815,-0.07323270,-0.0
 4885004,-0.00704884,-0.00712680,-0.01059502,-0.00662693,0.00327104,-0.
 00109802,0.00060740,-0.01911903,-0.02276273,-0.00700283,0.08615694,-0.
 05376579,-0.09632911,-0.00515394,-0.01906216,-0.01717456,-0.01118922,0
 .00262782,-0.00018616,0.00048209,-0.01030160,-0.00306888,-0.00303592,0
 .08317677,0.14206609,-0.01636518,-0.01628911,-0.03827809,0.00745044,0.
 00867732,0.00899474,0.00158861,-0.00051413,0.00050353,-0.01075577,-0.0
 1051759,-0.00093514,0.02440899,0.04028542,0.03874022,-0.05807570,0.022
 26377,0.03664872,-0.00340541,0.00918634,0.00683718,0.00278581,-0.00047
 764,0.00086293,-0.01291820,0.01519544,0.01898600,0.01005055,-0.0026750
 4,-0.00632709,0.06156295,0.03163213,-0.05937666,-0.04082872,0.00081209
 ,0.00382474,-0.00042876,-0.00277913,0.00080089,-0.00063141,0.01369876,
 -0.00934412,-0.01343151,0.00012903,-0.02530739,-0.02164191,-0.04349287
 ,0.08940253,0.03960432,-0.02906373,-0.09032780,0.01680654,-0.02267690,
 -0.01573133,-0.00216038,0.00056728,-0.00000316,0.00709506,-0.00440054,
 -0.00085380,-0.00433778,-0.02138843,-0.00902525,-0.05700775,0.07696232
 ,0.11594135\\-0.00001994,-0.00001217,-0.00000779,-0.00001319,0.0000039
 1,0.00000469,0.00001503,0.00001331,-0.00001897,0.00000893,-0.00000366,
 -0.00000385,0.00000919,0.00000472,0.00001670,-0.00000003,-0.00000612,0
 .00000922\\\@


 ADAM SMITH SAID, "THE REAL PRICE OF ANYTHING IS THE TOIL AND TROUBLE
 OF ACQUIRING IT."  BUT IN ALL UNDERTAKINGS WITH NATURE WE SHOULD FIRST
 READ CAREFULLY THE SMALL PRINT IN THE CONTRACT. THIS MIGHT DISCLOSE
 THAT THE REAL PRICE IS TO BE PAID BY THOSE WHO INHERIT THE DEPLETION
 AND DESPOILATION THAT FOLLOWS.
                               -- E. R. HARRISON IN "COSMOLOGY" (1980)
 Job cpu time:  0 days  0 hours  0 minutes 41.2 seconds.
 File lengths (MBytes):  RWF=     16 Int=      0 D2E=      0 Chk=      2 Scr=      1
 Normal termination of Gaussian 09 at Tue Feb 23 16:17:10 2021.
