 Entering Gaussian System, Link 0=g09
 Input=rxn.com
 Output=rxn.log
 Initial command:
 /home/student/g09/l1.exe /home/student/badal/Gau-30618.inp -scrdir=/home/student/badal/
 Entering Link 1 = /home/student/g09/l1.exe PID=     30620.
  
 Copyright (c) 1988,1990,1992,1993,1995,1998,2003,2009,2011,
            Gaussian, Inc.  All Rights Reserved.
  
 This is part of the Gaussian(R) 09 program.  It is based on
 the Gaussian(R) 03 system (copyright 2003, Gaussian, Inc.),
 the Gaussian(R) 98 system (copyright 1998, Gaussian, Inc.),
 the Gaussian(R) 94 system (copyright 1995, Gaussian, Inc.),
 the Gaussian 92(TM) system (copyright 1992, Gaussian, Inc.),
 the Gaussian 90(TM) system (copyright 1990, Gaussian, Inc.),
 the Gaussian 88(TM) system (copyright 1988, Gaussian, Inc.),
 the Gaussian 86(TM) system (copyright 1986, Carnegie Mellon
 University), and the Gaussian 82(TM) system (copyright 1983,
 Carnegie Mellon University). Gaussian is a federally registered
 trademark of Gaussian, Inc.
  
 This software contains proprietary and confidential information,
 including trade secrets, belonging to Gaussian, Inc.
  
 This software is provided under written license and may be
 used, copied, transmitted, or stored only in accord with that
 written license.
  
 The following legend is applicable only to US Government
 contracts under FAR:
  
                    RESTRICTED RIGHTS LEGEND
  
 Use, reproduction and disclosure by the US Government is
 subject to restrictions as set forth in subparagraphs (a)
 and (c) of the Commercial Computer Software - Restricted
 Rights clause in FAR 52.227-19.
  
 Gaussian, Inc.
 340 Quinnipiac St., Bldg. 40, Wallingford CT 06492
  
  
 ---------------------------------------------------------------
 Warning -- This program may not be used in any manner that
 competes with the business of Gaussian, Inc. or will provide
 assistance to any competitor of Gaussian, Inc.  The licensee
 of this program is prohibited from giving any competitor of
 Gaussian, Inc. access to this program.  By using this program,
 the user acknowledges that Gaussian, Inc. is engaged in the
 business of creating and licensing software in the field of
 computational chemistry and represents and warrants to the
 licensee that it is not a competitor of Gaussian, Inc. and that
 it will not use this program in any manner prohibited above.
 ---------------------------------------------------------------
  

 Cite this work as:
 Gaussian 09, Revision C.01,
 M. J. Frisch, G. W. Trucks, H. B. Schlegel, G. E. Scuseria, 
 M. A. Robb, J. R. Cheeseman, G. Scalmani, V. Barone, B. Mennucci, 
 G. A. Petersson, H. Nakatsuji, M. Caricato, X. Li, H. P. Hratchian, 
 A. F. Izmaylov, J. Bloino, G. Zheng, J. L. Sonnenberg, M. Hada, 
 M. Ehara, K. Toyota, R. Fukuda, J. Hasegawa, M. Ishida, T. Nakajima, 
 Y. Honda, O. Kitao, H. Nakai, T. Vreven, J. A. Montgomery, Jr., 
 J. E. Peralta, F. Ogliaro, M. Bearpark, J. J. Heyd, E. Brothers, 
 K. N. Kudin, V. N. Staroverov, T. Keith, R. Kobayashi, J. Normand, 
 K. Raghavachari, A. Rendell, J. C. Burant, S. S. Iyengar, J. Tomasi, 
 M. Cossi, N. Rega, J. M. Millam, M. Klene, J. E. Knox, J. B. Cross, 
 V. Bakken, C. Adamo, J. Jaramillo, R. Gomperts, R. E. Stratmann, 
 O. Yazyev, A. J. Austin, R. Cammi, C. Pomelli, J. W. Ochterski, 
 R. L. Martin, K. Morokuma, V. G. Zakrzewski, G. A. Voth, 
 P. Salvador, J. J. Dannenberg, S. Dapprich, A. D. Daniels, 
 O. Farkas, J. B. Foresman, J. V. Ortiz, J. Cioslowski, 
 and D. J. Fox, Gaussian, Inc., Wallingford CT, 2010.
 
 ******************************************
 Gaussian 09:  EM64L-G09RevC.01 23-Sep-2011
                23-Feb-2021 
 ******************************************
 %nproc=4
 Will use up to    4 processors via shared memory.
 %chk=rxn.chk
 -----------------------------------------
 # opt freq b3lyp/6-31g* geom=connectivity
 -----------------------------------------
 1/14=-1,18=20,19=15,26=3,38=1,57=2/1,3;
 2/9=110,12=2,17=6,18=5,40=1/2;
 3/5=1,6=6,7=1,11=2,16=1,25=1,30=1,71=1,74=-5/1,2,3;
 4//1;
 5/5=2,38=5/2;
 6/7=2,8=2,9=2,10=2,28=1/1;
 7//1,2,3,16;
 1/14=-1,18=20,19=15/3(2);
 2/9=110/2;
 99//99;
 2/9=110/2;
 3/5=1,6=6,7=1,11=2,16=1,25=1,30=1,71=1,74=-5/1,2,3;
 4/5=5,16=3/1;
 5/5=2,38=5/2;
 7//1,2,3,16;
 1/14=-1,18=20,19=15/3(-5);
 2/9=110/2;
 6/7=2,8=2,9=2,10=2,19=2,28=1/1;
 99/9=1/99;
 -------------------
 Title Card Required
 -------------------
 Charge =  0 Multiplicity = 2
 Symbolic Z-Matrix:
 C                    -3.80165  -0.63511  -0.16676 
 H                    -4.40878  -1.48642  -0.39511 
 H                    -4.26934  -0.05951   0.60391 
 H                    -3.68917  -0.03258  -1.04341 
 Cl                   -0.6173   -1.71787   0.93601 
 H                    -2.358    -1.1264    0.33378 
 

 GradGradGradGradGradGradGradGradGradGradGradGradGradGradGradGradGradGrad
 Berny optimization.
 Initialization pass.
                           ----------------------------
                           !    Initial Parameters    !
                           ! (Angstroms and Degrees)  !
 --------------------------                            --------------------------
 ! Name  Definition              Value          Derivative Info.                !
 --------------------------------------------------------------------------------
 ! R1    R(1,2)                  1.0703         estimate D2E/DX2                !
 ! R2    R(1,3)                  1.0696         estimate D2E/DX2                !
 ! R3    R(1,4)                  1.0697         estimate D2E/DX2                !
 ! R4    R(1,6)                  1.605          estimate D2E/DX2                !
 ! R5    R(5,6)                  1.9346         estimate D2E/DX2                !
 ! A1    A(2,1,3)              109.4961         estimate D2E/DX2                !
 ! A2    A(2,1,4)              109.4416         estimate D2E/DX2                !
 ! A3    A(2,1,6)              109.4689         estimate D2E/DX2                !
 ! A4    A(3,1,4)              109.4734         estimate D2E/DX2                !
 ! A5    A(3,1,6)              109.4705         estimate D2E/DX2                !
 ! A6    A(4,1,6)              109.4768         estimate D2E/DX2                !
 ! A7    L(1,6,5,4,-1)         179.9571         estimate D2E/DX2                !
 ! A8    L(1,6,5,4,-2)         179.9998         estimate D2E/DX2                !
 ! D1    D(2,1,4,3)            120.0136         estimate D2E/DX2                !
 ! D2    D(2,1,6,3)           -120.0286         estimate D2E/DX2                !
 ! D3    D(2,1,6,4)            119.9657         estimate D2E/DX2                !
 ! D4    D(3,1,6,4)           -120.0056         estimate D2E/DX2                !
 --------------------------------------------------------------------------------
 Trust Radius=3.00D-01 FncErr=1.00D-07 GrdErr=1.00D-06
 Number of steps in this run=     27 maximum allowed number of steps=    100.
 GradGradGradGradGradGradGradGradGradGradGradGradGradGradGradGradGradGrad

                          Input orientation:                          
 ---------------------------------------------------------------------
 Center     Atomic      Atomic             Coordinates (Angstroms)
 Number     Number       Type             X           Y           Z
 ---------------------------------------------------------------------
      1          6           0       -3.801653   -0.635108   -0.166765
      2          1           0       -4.408781   -1.486417   -0.395108
      3          1           0       -4.269337   -0.059512    0.603912
      4          1           0       -3.689171   -0.032580   -1.043408
      5         17           0       -0.617298   -1.717873    0.936006
      6          1           0       -2.358003   -1.126405    0.333779
 ---------------------------------------------------------------------
                    Distance matrix (angstroms):
                    1          2          3          4          5
     1  C    0.000000
     2  H    1.070268   0.000000
     3  H    1.069571   1.747439   0.000000
     4  H    1.069670   1.746932   1.746706   0.000000
     5  Cl   3.539576   4.025019   4.024654   4.024263   0.000000
     6  H    1.605005   2.206031   2.205545   2.205698   1.934571
                    6
     6  H    0.000000
 Stoichiometry    CH4Cl(2)
 Framework group  C1[X(CH4Cl)]
 Deg. of freedom    12
 Full point group                 C1      NOp   1
 Largest Abelian subgroup         C1      NOp   1
 Largest concise Abelian subgroup C1      NOp   1
                         Standard orientation:                         
 ---------------------------------------------------------------------
 Center     Atomic      Atomic             Coordinates (Angstroms)
 Number     Number       Type             X           Y           Z
 ---------------------------------------------------------------------
      1          6           0       -2.248441   -0.000106   -0.000030
      2          1           0       -2.605389    0.940540   -0.365060
      3          1           0       -2.605126   -0.786522   -0.631147
      4          1           0       -2.604691   -0.153543    0.996834
      5         17           0        1.291135    0.000007    0.000013
      6          1           0       -0.643436    0.000046   -0.000659
 ---------------------------------------------------------------------
 Rotational constants (GHZ):    164.2983691      3.6199476      3.6199080
 Standard basis: 6-31G(d) (6D, 7F)
 There are    42 symmetry adapted basis functions of A   symmetry.
 Integral buffers will be    131072 words long.
 Raffenetti 2 integral format.
 Two-electron integral symmetry is turned on.
    42 basis functions,    96 primitive gaussians,    42 cartesian basis functions
    14 alpha electrons       13 beta electrons
       nuclear repulsion energy        39.1151928901 Hartrees.
 NAtoms=    6 NActive=    6 NUniq=    6 SFac= 1.00D+00 NAtFMM=   60 NAOKFM=F Big=F
 One-electron integrals computed using PRISM.
 NBasis=    42 RedAO= T  NBF=    42
 NBsUse=    42 1.00D-06 NBFU=    42
 Harris functional with IExCor=  402 diagonalized for initial guess.
 ExpMin= 1.43D-01 ExpMax= 2.52D+04 ExpMxC= 3.78D+03 IAcc=1 IRadAn=         1 AccDes= 0.00D+00
 HarFok:  IExCor=  402 AccDes= 0.00D+00 IRadAn=         1 IDoV= 1
 ScaDFX=  1.000000  1.000000  1.000000  1.000000
 FoFCou: FMM=F IPFlag=           0 FMFlag=      100000 FMFlg1=           0
         NFxFlg=           0 DoJE=T BraDBF=F KetDBF=T FulRan=T
         Omega=  0.000000  0.000000  1.000000  0.000000  0.000000 ICntrl=     500 IOpCl=  0
         NMat0=    1 NMatS0=    1 NMatT0=    0 NMatD0=    1 NMtDS0=    0 NMtDT0=    0
         I1Cent=           4 NGrid=           0.
 Petite list used in FoFCou.
 Initial guess orbital symmetries:
 Alpha Orbitals:
       Occupied  (A) (A) (A) (A) (A) (A) (A) (A) (A) (A) (A) (A)
                 (A) (A)
       Virtual   (A) (A) (A) (A) (A) (A) (A) (A) (A) (A) (A) (A)
                 (A) (A) (A) (A) (A) (A) (A) (A) (A) (A) (A) (A)
                 (A) (A) (A) (A)
 Beta  Orbitals:
       Occupied  (A) (A) (A) (A) (A) (A) (A) (A) (A) (A) (A) (A)
                 (A)
       Virtual   (A) (A) (A) (A) (A) (A) (A) (A) (A) (A) (A) (A)
                 (A) (A) (A) (A) (A) (A) (A) (A) (A) (A) (A) (A)
                 (A) (A) (A) (A) (A)
 The electronic state of the initial guess is 2-A.
 Initial guess <Sx>= 0.0000 <Sy>= 0.0000 <Sz>= 0.5000 <S**2>= 0.7500 S= 0.5000
 Requested convergence on RMS density matrix=1.00D-08 within 128 cycles.
 Requested convergence on MAX density matrix=1.00D-06.
 Requested convergence on             energy=1.00D-06.
 No special actions if energy rises.
 Keep R1 and R2 ints in memory in canonical form, NReq=1749198.
 Integral accuracy reduced to 1.0D-05 until final iterations.
 Initial convergence to 1.0D-05 achieved.  Increase integral accuracy.
 SCF Done:  E(UB3LYP) =  -500.604913086     A.U. after   23 cycles
             Convg  =    0.5131D-08             -V/T =  2.0041
 <Sx>= 0.0000 <Sy>= 0.0000 <Sz>= 0.5000 <S**2>= 0.7661 S= 0.5080
 <L.S>= 0.000000000000E+00
 Annihilation of the first spin contaminant:
 S**2 before annihilation     0.7661,   after     0.7500

 **********************************************************************

            Population analysis using the SCF density.

 **********************************************************************

 Orbital symmetries:
 Alpha Orbitals:
       Occupied  (A) (A) (A) (A) (A) (A) (A) (A) (A) (A) (A) (A)
                 (A) (A)
       Virtual   (A) (A) (A) (A) (A) (A) (A) (A) (A) (A) (A) (A)
                 (A) (A) (A) (A) (A) (A) (A) (A) (A) (A) (A) (A)
                 (A) (A) (A) (A)
 Beta  Orbitals:
       Occupied  (A) (A) (A) (A) (A) (A) (A) (A) (A) (A) (A) (A)
                 (A)
       Virtual   (A) (A) (A) (A) (A) (A) (A) (A) (A) (A) (A) (A)
                 (A) (A) (A) (A) (A) (A) (A) (A) (A) (A) (A) (A)
                 (A) (A) (A) (A) (A)
 The electronic state is 2-A.
 Alpha  occ. eigenvalues -- -101.54790 -10.24796  -9.46065  -7.23142  -7.21351
 Alpha  occ. eigenvalues --   -7.21351  -0.79893  -0.73407  -0.44550  -0.44534
 Alpha  occ. eigenvalues --   -0.42112  -0.31806  -0.31096  -0.31096
 Alpha virt. eigenvalues --    0.01466   0.10615   0.14801   0.14817   0.38160
 Alpha virt. eigenvalues --    0.43626   0.43630   0.48406   0.50724   0.50735
 Alpha virt. eigenvalues --    0.58726   0.81213   0.84748   0.84750   0.85105
 Alpha virt. eigenvalues --    0.86763   0.86798   0.88493   0.88494   0.99828
 Alpha virt. eigenvalues --    1.23427   1.60006   1.60011   1.87673   2.22060
 Alpha virt. eigenvalues --    2.22121   4.11858   4.22214
  Beta  occ. eigenvalues -- -101.54320 -10.24137  -9.45624  -7.21653  -7.21083
  Beta  occ. eigenvalues --   -7.21083  -0.76477  -0.71629  -0.43988  -0.43971
  Beta  occ. eigenvalues --   -0.38276  -0.30028  -0.30028
  Beta virt. eigenvalues --   -0.20702   0.03647   0.11172   0.15336   0.15352
  Beta virt. eigenvalues --    0.39613   0.44035   0.44039   0.51113   0.51176
  Beta virt. eigenvalues --    0.51187   0.61593   0.83227   0.86728   0.87162
  Beta virt. eigenvalues --    0.87197   0.89033   0.89035   0.89111   0.89111
  Beta virt. eigenvalues --    1.00558   1.24578   1.62374   1.62380   1.91392
  Beta virt. eigenvalues --    2.23391   2.23451   4.13499   4.23623
          Condensed to atoms (all electrons):
              1          2          3          4          5          6
     1  C    5.192805   0.372533   0.372597   0.372575  -0.016109   0.219649
     2  H    0.372533   0.496348  -0.031032  -0.031087   0.000116  -0.009739
     3  H    0.372597  -0.031032   0.496127  -0.031082   0.000116  -0.009747
     4  H    0.372575  -0.031087  -0.031082   0.496241   0.000117  -0.009742
     5  Cl  -0.016109   0.000116   0.000116   0.000117  17.119260   0.086896
     6  H    0.219649  -0.009739  -0.009747  -0.009742   0.086896   0.627098
 Mulliken atomic charges:
              1
     1  C   -0.514050
     2  H    0.202861
     3  H    0.203020
     4  H    0.202979
     5  Cl  -0.190396
     6  H    0.095586
 Sum of Mulliken atomic charges =   0.00000
 Mulliken charges with hydrogens summed into heavy atoms:
              1
     1  C    0.190396
     5  Cl  -0.190396
 Sum of Mulliken charges with hydrogens summed into heavy atoms =   0.00000
          Atomic-Atomic Spin Densities.
              1          2          3          4          5          6
     1  C    0.497704  -0.008734  -0.008742  -0.008736  -0.027043   0.052842
     2  H   -0.008734  -0.007750   0.002646   0.002647   0.000611  -0.000726
     3  H   -0.008742   0.002646  -0.007739   0.002647   0.000611  -0.000727
     4  H   -0.008736   0.002647   0.002647  -0.007768   0.000610  -0.000726
     5  Cl  -0.027043   0.000611   0.000611   0.000610   0.712844  -0.039903
     6  H    0.052842  -0.000726  -0.000727  -0.000726  -0.039903  -0.121843
 Mulliken atomic spin densities:
              1
     1  C    0.497291
     2  H   -0.011306
     3  H   -0.011304
     4  H   -0.011325
     5  Cl   0.647728
     6  H   -0.111084
 Sum of Mulliken atomic spin densities =   1.00000
 Electronic spatial extent (au):  <R**2>=            337.7813
 Charge=              0.0000 electrons
 Dipole moment (field-independent basis, Debye):
    X=             -3.3230    Y=             -0.0001    Z=              0.0002  Tot=              3.3230
 Quadrupole moment (field-independent basis, Debye-Ang):
   XX=            -15.2389   YY=            -21.4168   ZZ=            -21.4185
   XY=              0.0001   XZ=             -0.0007   YZ=              0.0006
 Traceless Quadrupole moment (field-independent basis, Debye-Ang):
   XX=              4.1192   YY=             -2.0587   ZZ=             -2.0605
   XY=              0.0001   XZ=             -0.0007   YZ=              0.0006
 Octapole moment (field-independent basis, Debye-Ang**2):
  XXX=             -9.5745  YYY=              0.2896  ZZZ=              0.5894  XYY=             -0.8558
  XXY=              0.0002  XXZ=              0.0040  XZZ=             -0.8507  YZZ=             -0.2906
  YYZ=             -0.5872  XYZ=             -0.0014
 Hexadecapole moment (field-independent basis, Debye-Ang**3):
 XXXX=           -338.8192 YYYY=            -29.2287 ZZZZ=            -29.2242 XXXY=             -0.0005
 XXXZ=             -0.0039 YYYX=             -0.8067 YYYZ=              0.0009 ZZZX=             -1.6384
 ZZZY=              0.0012 XXYY=            -67.0518 XXZZ=            -67.0657 YYZZ=             -9.7429
 XXYZ=              0.0038 YYXZ=              1.6351 ZZXY=              0.8086
 N-N= 3.911519289007D+01 E-N=-1.890927378479D+03  KE= 7.466968435415D+02
                          Isotropic Fermi Contact Couplings
        Atom                 a.u.       MegaHertz       Gauss      10(-4) cm-1
     1  C(13)              0.11506     129.35119      46.15572      43.14691
     2  H(1)              -0.00140      -6.27945      -2.24066      -2.09460
     3  H(1)              -0.00140      -6.26243      -2.23459      -2.08892
     4  H(1)              -0.00141      -6.31292      -2.25261      -2.10576
     5  Cl(35)             0.02547      11.16705       3.98468       3.72493
     6  H(1)              -0.02679    -119.73111     -42.72304     -39.93800
 --------------------------------------------------------
       Center         ----  Spin Dipole Couplings  ----
                      3XX-RR        3YY-RR        3ZZ-RR
 --------------------------------------------------------
     1   Atom        0.459649     -0.229826     -0.229823
     2   Atom        0.000111      0.022177     -0.022288
     3   Atom        0.000124      0.006463     -0.006587
     4   Atom        0.000121     -0.028812      0.028691
     5   Atom        4.046437     -2.023218     -2.023219
     6   Atom        0.096928     -0.048464     -0.048464
 --------------------------------------------------------
                        XY            XZ            YZ
 --------------------------------------------------------
     1   Atom        0.000077     -0.000160     -0.000012
     2   Atom       -0.011587      0.004491     -0.020316
     3   Atom        0.009696      0.007774      0.029434
     4   Atom        0.001890     -0.012277     -0.009064
     5   Atom        0.000051      0.000976      0.000000
     6   Atom        0.000008     -0.000019      0.000000
 --------------------------------------------------------


 ---------------------------------------------------------------------------------
              Anisotropic Spin Dipole Couplings in Principal Axis System
 ---------------------------------------------------------------------------------

       Atom             a.u.   MegaHertz   Gauss  10(-4) cm-1        Axes

              Baa    -0.2298   -30.842   -11.005   -10.288  0.0001  0.7377  0.6752
     1 C(13)  Bbb    -0.2298   -30.839   -11.004   -10.287  0.0002 -0.6752  0.7377
              Bcc     0.4596    61.681    22.009    20.574  1.0000  0.0001 -0.0002
 
              Baa    -0.0302   -16.099    -5.744    -5.370  0.0002  0.3618  0.9322
     2 H(1)   Bbb    -0.0044    -2.333    -0.833    -0.778  0.9406  0.3164 -0.1230
              Bcc     0.0345    18.432     6.577     6.148 -0.3394  0.8769 -0.3403
 
              Baa    -0.0302   -16.119    -5.752    -5.377  0.0002 -0.6260  0.7799
     3 H(1)   Bbb    -0.0044    -2.326    -0.830    -0.776  0.9407 -0.2645 -0.2126
              Bcc     0.0346    18.445     6.582     6.153  0.3394  0.7336  0.5888
 
              Baa    -0.0302   -16.117    -5.751    -5.376  0.0000  0.9884  0.1521
     4 H(1)   Bbb    -0.0044    -2.325    -0.830    -0.776  0.9407 -0.0516  0.3353
              Bcc     0.0346    18.442     6.581     6.152 -0.3392 -0.1431  0.9298
 
              Baa    -2.0232  -105.891   -37.784   -35.321 -0.0002 -0.2681  0.9634
     5 Cl(35) Bbb    -2.0232  -105.890   -37.784   -35.321 -0.0001  0.9634  0.2681
              Bcc     4.0464   211.781    75.569    70.643  1.0000  0.0000  0.0002
 
              Baa    -0.0485   -25.858    -9.227    -8.625  0.0000  0.9399  0.3414
     6 H(1)   Bbb    -0.0485   -25.858    -9.227    -8.625  0.0001 -0.3414  0.9399
              Bcc     0.0969    51.716    18.454    17.251  1.0000  0.0001 -0.0001
 

 ---------------------------------------------------------------------------------

 Calling FoFJK, ICntrl=      2127 FMM=F ISym2X=0 I1Cent= 0 IOpClX= 1 NMat=1 NMatS=1 NMatT=0.
 ***** Axes restored to original set *****
 -------------------------------------------------------------------
 Center     Atomic                   Forces (Hartrees/Bohr)
 Number     Number              X              Y              Z
 -------------------------------------------------------------------
      1        6           0.032714560   -0.011604652    0.011224019
      2        1           0.002656715   -0.020513223    0.000648695
      3        1           0.005013535    0.006187869    0.019505370
      4        1           0.016090600    0.006709138   -0.011791268
      5       17          -0.021760148    0.007393793   -0.007528701
      6        1          -0.034715261    0.011827076   -0.012058115
 -------------------------------------------------------------------
 Cartesian Forces:  Max     0.034715261 RMS     0.016195472

 GradGradGradGradGradGradGradGradGradGradGradGradGradGradGradGradGradGrad
 Berny optimization.
 Internal  Forces:  Max     0.062789784 RMS     0.018620393
 Search for a local minimum.
 Step number   1 out of a maximum of   27
 All quantities printed in internal units (Hartrees-Bohrs-Radians)
 Mixed Optimization -- RFO/linear search
 Second derivative matrix not updated -- first step.
 The second derivative matrix:
                          R1        R2        R3        R4        R5
           R1           0.37196
           R2           0.00000   0.37284
           R3           0.00000   0.00000   0.37272
           R4           0.00000   0.00000   0.00000   0.08998
           R5           0.00000   0.00000   0.00000   0.00000   0.06449
           A1           0.00000   0.00000   0.00000   0.00000   0.00000
           A2           0.00000   0.00000   0.00000   0.00000   0.00000
           A3           0.00000   0.00000   0.00000   0.00000   0.00000
           A4           0.00000   0.00000   0.00000   0.00000   0.00000
           A5           0.00000   0.00000   0.00000   0.00000   0.00000
           A6           0.00000   0.00000   0.00000   0.00000   0.00000
           A7           0.00000   0.00000   0.00000   0.00000   0.00000
           A8           0.00000   0.00000   0.00000   0.00000   0.00000
           D1           0.00000   0.00000   0.00000   0.00000   0.00000
           D2           0.00000   0.00000   0.00000   0.00000   0.00000
           D3           0.00000   0.00000   0.00000   0.00000   0.00000
           D4           0.00000   0.00000   0.00000   0.00000   0.00000
                          A1        A2        A3        A4        A5
           A1           0.16000
           A2           0.00000   0.16000
           A3           0.00000   0.00000   0.16000
           A4           0.00000   0.00000   0.00000   0.16000
           A5           0.00000   0.00000   0.00000   0.00000   0.16000
           A6           0.00000   0.00000   0.00000   0.00000   0.00000
           A7           0.00000   0.00000   0.00000   0.00000   0.00000
           A8           0.00000   0.00000   0.00000   0.00000   0.00000
           D1           0.00000   0.00000   0.00000   0.00000   0.00000
           D2           0.00000   0.00000   0.00000   0.00000   0.00000
           D3           0.00000   0.00000   0.00000   0.00000   0.00000
           D4           0.00000   0.00000   0.00000   0.00000   0.00000
                          A6        A7        A8        D1        D2
           A6           0.16000
           A7           0.00000   0.00230
           A8           0.00000   0.00000   0.00230
           D1           0.00000   0.00000   0.00000   0.00504
           D2           0.00000   0.00000   0.00000   0.00000   0.00230
           D3           0.00000   0.00000   0.00000   0.00000   0.00000
           D4           0.00000   0.00000   0.00000   0.00000   0.00000
                          D3        D4
           D3           0.00230
           D4           0.00000   0.00230
 ITU=  0
     Eigenvalues ---    0.00230   0.00230   0.05133   0.05716   0.06449
     Eigenvalues ---    0.08736   0.08998   0.16000   0.16000   0.37196
     Eigenvalues ---    0.37272   0.37284
 RFO step:  Lambda=-4.22192432D-02 EMin= 2.30000000D-03
 Linear search not attempted -- first point.
 Maximum step size (   0.300) exceeded in Quadratic search.
    -- Step size scaled by   0.545
 Iteration  1 RMS(Cart)=  0.08994511 RMS(Int)=  0.01436517
 Iteration  2 RMS(Cart)=  0.01667993 RMS(Int)=  0.00073632
 Iteration  3 RMS(Cart)=  0.00000027 RMS(Int)=  0.00073632
 Variable       Old X    -DE/DX   Delta X   Delta X   Delta X     New X
                                 (Linear)    (Quad)   (Total)
    R1        2.02251   0.01467   0.00000   0.01932   0.01932   2.04183
    R2        2.02120   0.01519   0.00000   0.01996   0.01996   2.04116
    R3        2.02138   0.01513   0.00000   0.01989   0.01989   2.04128
    R4        3.03302  -0.06279   0.00000  -0.25902  -0.25902   2.77400
    R5        3.65581  -0.02418   0.00000  -0.12359  -0.12359   3.53222
    A1        1.91107   0.00444   0.00000   0.02684   0.02508   1.93614
    A2        1.91012   0.00949   0.00000   0.03545   0.03427   1.94439
    A3        1.91059  -0.00689   0.00000  -0.03211  -0.03181   1.87878
    A4        1.91067   0.00948   0.00000   0.03535   0.03418   1.94485
    A5        1.91062  -0.00688   0.00000  -0.03210  -0.03180   1.87882
    A6        1.91073  -0.00964   0.00000  -0.03344  -0.03332   1.87741
    A7        3.14084   0.00000   0.00000   0.00000   0.00000   3.14084
    A8        3.14159   0.00000   0.00000  -0.00001  -0.00001   3.14158
    D1        2.09463   0.01705   0.00000   0.07621   0.07795   2.17259
    D2       -2.09490   0.00299   0.00000   0.00646   0.00668  -2.08821
    D3        2.09380   0.00151   0.00000   0.00330   0.00341   2.09720
    D4       -2.09449  -0.00149   0.00000  -0.00316  -0.00327  -2.09777
         Item               Value     Threshold  Converged?
 Maximum Force            0.062790     0.000450     NO 
 RMS     Force            0.018620     0.000300     NO 
 Maximum Displacement     0.273102     0.001800     NO 
 RMS     Displacement     0.105785     0.001200     NO 
 Predicted change in Energy=-1.878758D-02
 GradGradGradGradGradGradGradGradGradGradGradGradGradGradGradGradGradGrad

                          Input orientation:                          
 ---------------------------------------------------------------------
 Center     Atomic      Atomic             Coordinates (Angstroms)
 Number     Number       Type             X           Y           Z
 ---------------------------------------------------------------------
      1          6           0       -3.763607   -0.647418   -0.154595
      2          1           0       -4.351569   -1.527203   -0.373086
      3          1           0       -4.209728   -0.073797    0.644545
      4          1           0       -3.614084   -0.043826   -1.037852
      5         17           0       -0.761817   -1.668687    0.885856
      6          1           0       -2.443437   -1.096964    0.303549
 ---------------------------------------------------------------------
                    Distance matrix (angstroms):
                    1          2          3          4          5
     1  C    0.000000
     2  H    1.080490   0.000000
     3  H    1.080134   1.779910   0.000000
     4  H    1.080196   1.784994   1.784979   0.000000
     5  Cl   3.337105   3.806740   3.806572   3.804767   0.000000
     6  H    1.467937   2.069761   2.069525   2.068543   1.869169
                    6
     6  H    0.000000
 Stoichiometry    CH4Cl(2)
 Framework group  C1[X(CH4Cl)]
 Deg. of freedom    12
 Full point group                 C1      NOp   1
 Largest Abelian subgroup         C1      NOp   1
 Largest concise Abelian subgroup C1      NOp   1
                         Standard orientation:                         
 ---------------------------------------------------------------------
 Center     Atomic      Atomic             Coordinates (Angstroms)
 Number     Number       Type             X           Y           Z
 ---------------------------------------------------------------------
      1          6           0       -2.119173   -0.000635   -0.000068
      2          1           0       -2.447060    0.517814    0.889404
      3          1           0       -2.446944    0.515482   -0.890505
      4          1           0       -2.444566   -1.030655    0.001462
      5         17           0        1.217932    0.000052    0.000005
      6          1           0       -0.651237    0.000286   -0.000032
 ---------------------------------------------------------------------
 Rotational constants (GHZ):    157.6829464      4.0673830      4.0669849
 Standard basis: 6-31G(d) (6D, 7F)
 There are    42 symmetry adapted basis functions of A   symmetry.
 Integral buffers will be    131072 words long.
 Raffenetti 2 integral format.
 Two-electron integral symmetry is turned on.
    42 basis functions,    96 primitive gaussians,    42 cartesian basis functions
    14 alpha electrons       13 beta electrons
       nuclear repulsion energy        40.7159781889 Hartrees.
 NAtoms=    6 NActive=    6 NUniq=    6 SFac= 1.00D+00 NAtFMM=   60 NAOKFM=F Big=F
 One-electron integrals computed using PRISM.
 NBasis=    42 RedAO= T  NBF=    42
 NBsUse=    42 1.00D-06 NBFU=    42
 Initial guess read from the read-write file.
 B after Tr=     0.000000    0.000000    0.000000
         Rot=    1.000000    0.000000    0.000000    0.000000 Ang=   0.00 deg.
 Initial guess orbital symmetries:
 Alpha Orbitals:
       Occupied  (A) (A) (A) (A) (A) (A) (A) (A) (A) (A) (A) (A)
                 (A) (A)
       Virtual   (A) (A) (A) (A) (A) (A) (A) (A) (A) (A) (A) (A)
                 (A) (A) (A) (A) (A) (A) (A) (A) (A) (A) (A) (A)
                 (A) (A) (A) (A)
 Beta  Orbitals:
       Occupied  (A) (A) (A) (A) (A) (A) (A) (A) (A) (A) (A) (A)
                 (A)
       Virtual   (A) (A) (A) (A) (A) (A) (A) (A) (A) (A) (A) (A)
                 (A) (A) (A) (A) (A) (A) (A) (A) (A) (A) (A) (A)
                 (A) (A) (A) (A) (A)
 Initial guess <Sx>= 0.0000 <Sy>= 0.0000 <Sz>= 0.5000 <S**2>= 0.7639 S= 0.5069
 Harris functional with IExCor=  402 diagonalized for initial guess.
 ExpMin= 1.43D-01 ExpMax= 2.52D+04 ExpMxC= 3.78D+03 IAcc=1 IRadAn=         1 AccDes= 0.00D+00
 HarFok:  IExCor=  402 AccDes= 0.00D+00 IRadAn=         1 IDoV= 1
 ScaDFX=  1.000000  1.000000  1.000000  1.000000
 FoFCou: FMM=F IPFlag=           0 FMFlag=      100000 FMFlg1=           0
         NFxFlg=           0 DoJE=T BraDBF=F KetDBF=T FulRan=T
         Omega=  0.000000  0.000000  1.000000  0.000000  0.000000 ICntrl=     500 IOpCl=  0
         NMat0=    1 NMatS0=    1 NMatT0=    0 NMatD0=    1 NMtDS0=    0 NMtDT0=    0
         I1Cent=           4 NGrid=           0.
 Petite list used in FoFCou.
 Requested convergence on RMS density matrix=1.00D-08 within 128 cycles.
 Requested convergence on MAX density matrix=1.00D-06.
 Requested convergence on             energy=1.00D-06.
 No special actions if energy rises.
 Keep R1 and R2 ints in memory in canonical form, NReq=1749198.
 Integral accuracy reduced to 1.0D-05 until final iterations.
 Initial convergence to 1.0D-05 achieved.  Increase integral accuracy.
 SCF Done:  E(UB3LYP) =  -500.626546269     A.U. after   17 cycles
             Convg  =    0.9100D-08             -V/T =  2.0041
 <Sx>= 0.0000 <Sy>= 0.0000 <Sz>= 0.5000 <S**2>= 0.7598 S= 0.5049
 <L.S>= 0.000000000000E+00
 Annihilation of the first spin contaminant:
 S**2 before annihilation     0.7598,   after     0.7500
 Calling FoFJK, ICntrl=      2127 FMM=F ISym2X=0 I1Cent= 0 IOpClX= 1 NMat=1 NMatS=1 NMatT=0.
 ***** Axes restored to original set *****
 -------------------------------------------------------------------
 Center     Atomic                   Forces (Hartrees/Bohr)
 Number     Number              X              Y              Z
 -------------------------------------------------------------------
      1        6           0.037538799   -0.013342887    0.013425626
      2        1           0.003247985   -0.010506793    0.000509681
      3        1           0.004427230    0.002754978    0.009862467
      4        1           0.009289705    0.002568249   -0.004928520
      5       17          -0.015030383    0.005109090   -0.005203104
      6        1          -0.039473337    0.013417362   -0.013666149
 -------------------------------------------------------------------
 Cartesian Forces:  Max     0.039473337 RMS     0.015517567

 GradGradGradGradGradGradGradGradGradGradGradGradGradGradGradGradGradGrad
 Berny optimization.
 Using GEDIIS/GDIIS optimizer.
 Internal  Forces:  Max     0.060579956 RMS     0.015945779
 Search for a local minimum.
 Step number   2 out of a maximum of   27
 All quantities printed in internal units (Hartrees-Bohrs-Radians)
 Mixed Optimization -- RFO/linear search
 Update second derivatives using D2CorX and points    1    2
 DE= -2.16D-02 DEPred=-1.88D-02 R= 1.15D+00
 SS=  1.41D+00  RLast= 3.09D-01 DXNew= 5.0454D-01 9.2847D-01
 Trust test= 1.15D+00 RLast= 3.09D-01 DXMaxT set to 5.05D-01
 The second derivative matrix:
                          R1        R2        R3        R4        R5
           R1           0.38598
           R2           0.01449   0.38782
           R3           0.01482   0.01532   0.38839
           R4           0.01422   0.01474   0.01457   0.02735
           R5          -0.01207  -0.01247  -0.01279  -0.01674   0.07462
           A1           0.00131   0.00135   0.00143   0.00974  -0.00063
           A2           0.00676   0.00699   0.00718   0.01194  -0.00552
           A3          -0.00265  -0.00273  -0.00286  -0.01209   0.00173
           A4           0.00678   0.00701   0.00720   0.01190  -0.00554
           A5          -0.00265  -0.00274  -0.00286  -0.01208   0.00174
           A6          -0.00667  -0.00689  -0.00708  -0.01158   0.00546
           A7          -0.00001  -0.00001  -0.00001   0.00000   0.00001
           A8           0.00000   0.00000   0.00000   0.00000   0.00000
           D1           0.01555   0.01609   0.01633  -0.00331  -0.01450
           D2           0.00385   0.00398   0.00404  -0.00103  -0.00360
           D3           0.00193   0.00199   0.00202  -0.00051  -0.00180
           D4          -0.00192  -0.00199  -0.00202   0.00051   0.00180
                          A1        A2        A3        A4        A5
           A1           0.15920
           A2           0.00007   0.16293
           A3           0.00078  -0.00066   0.15935
           A4           0.00008   0.00294  -0.00067   0.16295
           A5           0.00078  -0.00066  -0.00064  -0.00067   0.15936
           A6          -0.00009  -0.00290   0.00067  -0.00291   0.00068
           A7           0.00000  -0.00001   0.00000  -0.00001   0.00000
           A8           0.00000   0.00000   0.00000   0.00000   0.00000
           D1           0.00353   0.00876  -0.00527   0.00877  -0.00527
           D2           0.00090   0.00218  -0.00133   0.00218  -0.00133
           D3           0.00045   0.00109  -0.00067   0.00109  -0.00067
           D4          -0.00045  -0.00109   0.00066  -0.00109   0.00066
                          A6        A7        A8        D1        D2
           A6           0.16287
           A7           0.00000   0.00230
           A8           0.00000   0.00000   0.00230
           D1          -0.00859  -0.00001   0.00000   0.01757
           D2          -0.00214   0.00000   0.00000   0.00305   0.00304
           D3          -0.00107   0.00000   0.00000   0.00153   0.00037
           D4           0.00107   0.00000   0.00000  -0.00152  -0.00037
                          D3        D4
           D3           0.00249
           D4          -0.00019   0.00249
 ITU=  1  0
 Use linear search instead of GDIIS.
 Linear search step of   0.599 exceeds DXMaxT=   0.505 but not scaled.
 Quartic linear search produced a step of  2.00000.
 Iteration  1 RMS(Cart)=  0.11969739 RMS(Int)=  0.07829376
 Iteration  2 RMS(Cart)=  0.06347610 RMS(Int)=  0.02911666
 Iteration  3 RMS(Cart)=  0.03322804 RMS(Int)=  0.00443433
 Iteration  4 RMS(Cart)=  0.00000068 RMS(Int)=  0.00443433
 Variable       Old X    -DE/DX   Delta X   Delta X   Delta X     New X
                                 (Linear)    (Quad)   (Total)
    R1        2.04183   0.00668   0.03864   0.00000   0.03864   2.08047
    R2        2.04116   0.00693   0.03992   0.00000   0.03992   2.08108
    R3        2.04128   0.00675   0.03978   0.00000   0.03978   2.08106
    R4        2.77400  -0.06058  -0.51804   0.00000  -0.51804   2.25595
    R5        3.53222  -0.01671  -0.24718   0.00000  -0.24718   3.28503
    A1        1.93614   0.00257   0.05015   0.00000   0.03955   1.97570
    A2        1.94439   0.00496   0.06854   0.00000   0.06058   2.00497
    A3        1.87878  -0.00412  -0.06362   0.00000  -0.06152   1.81726
    A4        1.94485   0.00494   0.06835   0.00000   0.06038   2.00523
    A5        1.87882  -0.00411  -0.06361   0.00000  -0.06151   1.81731
    A6        1.87741  -0.00520  -0.06664   0.00000  -0.06511   1.81230
    A7        3.14084   0.00000  -0.00001   0.00000  -0.00001   3.14083
    A8        3.14158   0.00000  -0.00002   0.00000  -0.00002   3.14156
    D1        2.17259   0.01074   0.15591   0.00000   0.16500   2.33759
    D2       -2.08821   0.00146   0.01336   0.00000   0.01429  -2.07393
    D3        2.09720   0.00074   0.00681   0.00000   0.00727   2.10447
    D4       -2.09777  -0.00072  -0.00655   0.00000  -0.00702  -2.10478
         Item               Value     Threshold  Converged?
 Maximum Force            0.060580     0.000450     NO 
 RMS     Force            0.015946     0.000300     NO 
 Maximum Displacement     0.546880     0.001800     NO 
 RMS     Displacement     0.211575     0.001200     NO 
 Predicted change in Energy=-3.340677D-02
 GradGradGradGradGradGradGradGradGradGradGradGradGradGradGradGradGradGrad

                          Input orientation:                          
 ---------------------------------------------------------------------
 Center     Atomic      Atomic             Coordinates (Angstroms)
 Number     Number       Type             X           Y           Z
 ---------------------------------------------------------------------
      1          6           0       -3.687784   -0.671763   -0.130625
      2          1           0       -4.236386   -1.605632   -0.328069
      3          1           0       -4.090222   -0.104438    0.723167
      4          1           0       -3.464071   -0.068145   -1.024127
      5         17           0       -1.051214   -1.570122    0.785361
      6          1           0       -2.614566   -1.037795    0.242710
 ---------------------------------------------------------------------
                    Distance matrix (angstroms):
                    1          2          3          4          5
     1  C    0.000000
     2  H    1.100935   0.000000
     3  H    1.101260   1.838489   0.000000
     4  H    1.101249   1.856026   1.856453   0.000000
     5  Cl   2.932163   3.374360   3.374562   3.369282   0.000000
     6  H    1.193799   1.810670   1.810955   1.807417   1.738364
                    6
     6  H    0.000000
 Stoichiometry    CH4Cl(2)
 Framework group  C1[X(CH4Cl)]
 Deg. of freedom    12
 Full point group                 C1      NOp   1
 Largest Abelian subgroup         C1      NOp   1
 Largest concise Abelian subgroup C1      NOp   1
                         Standard orientation:                         
 ---------------------------------------------------------------------
 Center     Atomic      Atomic             Coordinates (Angstroms)
 Number     Number       Type             X           Y           Z
 ---------------------------------------------------------------------
      1          6           0       -1.860734   -0.002176   -0.000009
      2          1           0       -2.130030    0.531063    0.924759
      3          1           0       -2.130152    0.550534   -0.913627
      4          1           0       -2.122758   -1.071741   -0.011083
      5         17           0        1.071428    0.000227   -0.000001
      6          1           0       -0.666936   -0.000658    0.000014
 ---------------------------------------------------------------------
 Rotational constants (GHZ):    146.4612491      5.2499244      5.2475194
 Standard basis: 6-31G(d) (6D, 7F)
 There are    42 symmetry adapted basis functions of A   symmetry.
 Integral buffers will be    131072 words long.
 Raffenetti 2 integral format.
 Two-electron integral symmetry is turned on.
    42 basis functions,    96 primitive gaussians,    42 cartesian basis functions
    14 alpha electrons       13 beta electrons
       nuclear repulsion energy        44.6301982590 Hartrees.
 NAtoms=    6 NActive=    6 NUniq=    6 SFac= 1.00D+00 NAtFMM=   60 NAOKFM=F Big=F
 One-electron integrals computed using PRISM.
 NBasis=    42 RedAO= T  NBF=    42
 NBsUse=    42 1.00D-06 NBFU=    42
 Initial guess read from the read-write file.
 B after Tr=     0.000000    0.000000    0.000000
         Rot=    1.000000    0.000000    0.000000    0.000000 Ang=   0.00 deg.
 Initial guess orbital symmetries:
 Alpha Orbitals:
       Occupied  (A) (A) (A) (A) (A) (A) (A) (A) (A) (A) (A) (A)
                 (A) (A)
       Virtual   (A) (A) (A) (A) (A) (A) (A) (A) (A) (A) (A) (A)
                 (A) (A) (A) (A) (A) (A) (A) (A) (A) (A) (A) (A)
                 (A) (A) (A) (A)
 Beta  Orbitals:
       Occupied  (A) (A) (A) (A) (A) (A) (A) (A) (A) (A) (A) (A)
                 (A)
       Virtual   (A) (A) (A) (A) (A) (A) (A) (A) (A) (A) (A) (A)
                 (A) (A) (A) (A) (A) (A) (A) (A) (A) (A) (A) (A)
                 (A) (A) (A) (A) (A)
 Initial guess <Sx>= 0.0000 <Sy>= 0.0000 <Sz>= 0.5000 <S**2>= 0.7566 S= 0.5033
 Harris functional with IExCor=  402 diagonalized for initial guess.
 ExpMin= 1.43D-01 ExpMax= 2.52D+04 ExpMxC= 3.78D+03 IAcc=1 IRadAn=         1 AccDes= 0.00D+00
 HarFok:  IExCor=  402 AccDes= 0.00D+00 IRadAn=         1 IDoV= 1
 ScaDFX=  1.000000  1.000000  1.000000  1.000000
 FoFCou: FMM=F IPFlag=           0 FMFlag=      100000 FMFlg1=           0
         NFxFlg=           0 DoJE=T BraDBF=F KetDBF=T FulRan=T
         Omega=  0.000000  0.000000  1.000000  0.000000  0.000000 ICntrl=     500 IOpCl=  0
         NMat0=    1 NMatS0=    1 NMatT0=    0 NMatD0=    1 NMtDS0=    0 NMtDT0=    0
         I1Cent=           4 NGrid=           0.
 Petite list used in FoFCou.
 Requested convergence on RMS density matrix=1.00D-08 within 128 cycles.
 Requested convergence on MAX density matrix=1.00D-06.
 Requested convergence on             energy=1.00D-06.
 No special actions if energy rises.
 Keep R1 and R2 ints in memory in canonical form, NReq=1749031.
 Integral accuracy reduced to 1.0D-05 until final iterations.
 Initial convergence to 1.0D-05 achieved.  Increase integral accuracy.
 SCF Done:  E(UB3LYP) =  -500.651286477     A.U. after   17 cycles
             Convg  =    0.3735D-08             -V/T =  2.0038
 <Sx>= 0.0000 <Sy>= 0.0000 <Sz>= 0.5000 <S**2>= 0.7544 S= 0.5022
 <L.S>= 0.000000000000E+00
 Annihilation of the first spin contaminant:
 S**2 before annihilation     0.7544,   after     0.7500
 Calling FoFJK, ICntrl=      2127 FMM=F ISym2X=0 I1Cent= 0 IOpClX= 1 NMat=1 NMatS=1 NMatT=0.
 ***** Axes restored to original set *****
 -------------------------------------------------------------------
 Center     Atomic                   Forces (Hartrees/Bohr)
 Number     Number              X              Y              Z
 -------------------------------------------------------------------
      1        6           0.012446654   -0.005278894    0.006055303
      2        1           0.001591058    0.007690898   -0.000978868
      3        1           0.000742400   -0.001952181   -0.007833100
      4        1          -0.005495921   -0.003480853    0.005768772
      5       17           0.005998965   -0.002052806    0.002096040
      6        1          -0.015283156    0.005073835   -0.005108147
 -------------------------------------------------------------------
 Cartesian Forces:  Max     0.015283156 RMS     0.006469668

 GradGradGradGradGradGradGradGradGradGradGradGradGradGradGradGradGradGrad
 Berny optimization.
 Using GEDIIS/GDIIS optimizer.
 Internal  Forces:  Max     0.010214690 RMS     0.004589877
 Search for a local minimum.
 Step number   3 out of a maximum of   27
 All quantities printed in internal units (Hartrees-Bohrs-Radians)
 Mixed Optimization -- RFO/linear search
 Update second derivatives using D2CorX and points    2    3
 The second derivative matrix:
                          R1        R2        R3        R4        R5
           R1           0.37058
           R2          -0.00144   0.37134
           R3          -0.00136  -0.00142   0.37139
           R4           0.00216   0.00229   0.00199   0.09181
           R5          -0.00140  -0.00142  -0.00156   0.00829   0.07098
           A1          -0.00059  -0.00062  -0.00057   0.00776   0.00057
           A2          -0.00059  -0.00062  -0.00055   0.00538  -0.00061
           A3           0.00211   0.00219   0.00214  -0.00703  -0.00126
           A4          -0.00058  -0.00061  -0.00053   0.00534  -0.00062
           A5           0.00211   0.00219   0.00215  -0.00704  -0.00127
           A6           0.00148   0.00154   0.00148  -0.00429   0.00002
           A7          -0.00002  -0.00002  -0.00002   0.00006   0.00003
           A8           0.00000   0.00000   0.00000   0.00000   0.00000
           D1           0.00497   0.00513   0.00520  -0.01835  -0.00869
           D2           0.00106   0.00109   0.00111  -0.00385  -0.00181
           D3           0.00053   0.00055   0.00055  -0.00192  -0.00090
           D4          -0.00053  -0.00055  -0.00055   0.00192   0.00091
                          A1        A2        A3        A4        A5
           A1           0.15897
           A2          -0.00083   0.15942
           A3           0.00136   0.00160   0.15791
           A4          -0.00082  -0.00057   0.00159   0.15944
           A5           0.00136   0.00160  -0.00209   0.00159   0.15791
           A6           0.00090   0.00098  -0.00183   0.00097  -0.00183
           A7           0.00000  -0.00001   0.00001  -0.00001   0.00001
           A8           0.00000   0.00000   0.00000   0.00000   0.00000
           D1           0.00227   0.00378  -0.00212   0.00378  -0.00211
           D2           0.00056   0.00086  -0.00048   0.00086  -0.00048
           D3           0.00028   0.00043  -0.00024   0.00043  -0.00024
           D4          -0.00028  -0.00043   0.00024  -0.00043   0.00024
                          A6        A7        A8        D1        D2
           A6           0.15857
           A7           0.00001   0.00230
           A8           0.00000   0.00000   0.00230
           D1          -0.00307  -0.00002   0.00000   0.01090
           D2          -0.00067   0.00000   0.00000   0.00119   0.00254
           D3          -0.00034   0.00000   0.00000   0.00059   0.00012
           D4           0.00034   0.00000   0.00000  -0.00059  -0.00012
                          D3        D4
           D3           0.00236
           D4          -0.00006   0.00236
 ITU=  0  1  0
 Use linear search instead of GDIIS.
     Eigenvalues ---    0.00230   0.00230   0.05557   0.06689   0.06755
     Eigenvalues ---    0.07866   0.09732   0.16000   0.16031   0.36837
     Eigenvalues ---    0.37227   0.37278
 RFO step:  Lambda=-2.73656372D-03 EMin= 2.29999890D-03
 Quartic linear search produced a step of  0.02107.
 Iteration  1 RMS(Cart)=  0.02542991 RMS(Int)=  0.00063368
 Iteration  2 RMS(Cart)=  0.00028647 RMS(Int)=  0.00052260
 Iteration  3 RMS(Cart)=  0.00000006 RMS(Int)=  0.00052260
 Variable       Old X    -DE/DX   Delta X   Delta X   Delta X     New X
                                 (Linear)    (Quad)   (Total)
    R1        2.08047  -0.00714   0.00081  -0.01878  -0.01796   2.06250
    R2        2.08108  -0.00735   0.00084  -0.01928  -0.01844   2.06264
    R3        2.08106  -0.00771   0.00084  -0.02024  -0.01940   2.06166
    R4        2.25595  -0.01021  -0.01091  -0.10140  -0.11231   2.14364
    R5        3.28503   0.00668  -0.00521   0.10504   0.09984   3.38487
    A1        1.97570   0.00045   0.00083  -0.00464  -0.00509   1.97061
    A2        2.00497  -0.00230   0.00128  -0.02630  -0.02589   1.97908
    A3        1.81726   0.00125  -0.00130   0.02333   0.02228   1.83954
    A4        2.00523  -0.00232   0.00127  -0.02652  -0.02611   1.97912
    A5        1.81731   0.00125  -0.00130   0.02326   0.02222   1.83953
    A6        1.81230   0.00287  -0.00137   0.02763   0.02644   1.83874
    A7        3.14083   0.00005   0.00000   0.00944   0.00944   3.15027
    A8        3.14156   0.00000   0.00000   0.00021   0.00021   3.14177
    D1        2.33759  -0.00434   0.00348  -0.06482  -0.06019   2.27740
    D2       -2.07393  -0.00157   0.00030  -0.01466  -0.01426  -2.08819
    D3        2.10447  -0.00078   0.00015  -0.00719  -0.00699   2.09748
    D4       -2.10478   0.00080  -0.00015   0.00746   0.00727  -2.09752
         Item               Value     Threshold  Converged?
 Maximum Force            0.010215     0.000450     NO 
 RMS     Force            0.004590     0.000300     NO 
 Maximum Displacement     0.060188     0.001800     NO 
 RMS     Displacement     0.025541     0.001200     NO 
 Predicted change in Energy=-1.425676D-03
 GradGradGradGradGradGradGradGradGradGradGradGradGradGradGradGradGradGrad

                          Input orientation:                          
 ---------------------------------------------------------------------
 Center     Atomic      Atomic             Coordinates (Angstroms)
 Number     Number       Type             X           Y           Z
 ---------------------------------------------------------------------
      1          6           0       -3.668379   -0.679313   -0.122523
      2          1           0       -4.227515   -1.593329   -0.330268
      3          1           0       -4.082772   -0.107678    0.709878
      4          1           0       -3.479745   -0.075448   -1.011347
      5         17           0       -1.039416   -1.577540    0.794258
      6          1           0       -2.646416   -1.024587    0.228419
 ---------------------------------------------------------------------
                    Distance matrix (angstroms):
                    1          2          3          4          5
     1  C    0.000000
     2  H    1.091429   0.000000
     3  H    1.091503   1.819344   0.000000
     4  H    1.090983   1.824005   1.824087   0.000000
     5  Cl   2.925534   3.380649   3.380774   3.386990   0.000000
     6  H    1.134365   1.770727   1.770775   1.769838   1.791195
                    6
     6  H    0.000000
 Stoichiometry    CH4Cl(2)
 Framework group  C1[X(CH4Cl)]
 Deg. of freedom    12
 Full point group                 C1      NOp   1
 Largest Abelian subgroup         C1      NOp   1
 Largest concise Abelian subgroup C1      NOp   1
                         Standard orientation:                         
 ---------------------------------------------------------------------
 Center     Atomic      Atomic             Coordinates (Angstroms)
 Number     Number       Type             X           Y           Z
 ---------------------------------------------------------------------
      1          6           0       -1.851853   -0.000528    0.000004
      2          1           0       -2.138880    0.522954    0.913677
      3          1           0       -2.139001    0.536855   -0.905614
      4          1           0       -2.146074   -1.051059   -0.007966
      5         17           0        1.073681    0.000044    0.000000
      6          1           0       -0.717503   -0.006335   -0.000115
 ---------------------------------------------------------------------
 Rotational constants (GHZ):    150.9739439      5.2523507      5.2517205
 Standard basis: 6-31G(d) (6D, 7F)
 There are    42 symmetry adapted basis functions of A   symmetry.
 Integral buffers will be    131072 words long.
 Raffenetti 2 integral format.
 Two-electron integral symmetry is turned on.
    42 basis functions,    96 primitive gaussians,    42 cartesian basis functions
    14 alpha electrons       13 beta electrons
       nuclear repulsion energy        44.7453651483 Hartrees.
 NAtoms=    6 NActive=    6 NUniq=    6 SFac= 1.00D+00 NAtFMM=   60 NAOKFM=F Big=F
 One-electron integrals computed using PRISM.
 NBasis=    42 RedAO= T  NBF=    42
 NBsUse=    42 1.00D-06 NBFU=    42
 Initial guess read from the read-write file.
 B after Tr=     0.000000    0.000000    0.000000
         Rot=    1.000000    0.000000    0.000000    0.000000 Ang=   0.00 deg.
 Initial guess orbital symmetries:
 Alpha Orbitals:
       Occupied  (A) (A) (A) (A) (A) (A) (A) (A) (A) (A) (A) (A)
                 (A) (A)
       Virtual   (A) (A) (A) (A) (A) (A) (A) (A) (A) (A) (A) (A)
                 (A) (A) (A) (A) (A) (A) (A) (A) (A) (A) (A) (A)
                 (A) (A) (A) (A)
 Beta  Orbitals:
       Occupied  (A) (A) (A) (A) (A) (A) (A) (A) (A) (A) (A) (A)
                 (A)
       Virtual   (A) (A) (A) (A) (A) (A) (A) (A) (A) (A) (A) (A)
                 (A) (A) (A) (A) (A) (A) (A) (A) (A) (A) (A) (A)
                 (A) (A) (A) (A) (A)
 Initial guess <Sx>= 0.0000 <Sy>= 0.0000 <Sz>= 0.5000 <S**2>= 0.7542 S= 0.5021
 Harris functional with IExCor=  402 diagonalized for initial guess.
 ExpMin= 1.43D-01 ExpMax= 2.52D+04 ExpMxC= 3.78D+03 IAcc=1 IRadAn=         1 AccDes= 0.00D+00
 HarFok:  IExCor=  402 AccDes= 0.00D+00 IRadAn=         1 IDoV= 1
 ScaDFX=  1.000000  1.000000  1.000000  1.000000
 FoFCou: FMM=F IPFlag=           0 FMFlag=      100000 FMFlg1=           0
         NFxFlg=           0 DoJE=T BraDBF=F KetDBF=T FulRan=T
         Omega=  0.000000  0.000000  1.000000  0.000000  0.000000 ICntrl=     500 IOpCl=  0
         NMat0=    1 NMatS0=    1 NMatT0=    0 NMatD0=    1 NMtDS0=    0 NMtDT0=    0
         I1Cent=           4 NGrid=           0.
 Petite list used in FoFCou.
 Requested convergence on RMS density matrix=1.00D-08 within 128 cycles.
 Requested convergence on MAX density matrix=1.00D-06.
 Requested convergence on             energy=1.00D-06.
 No special actions if energy rises.
 Keep R1 and R2 ints in memory in canonical form, NReq=1749031.
 Integral accuracy reduced to 1.0D-05 until final iterations.
 Initial convergence to 1.0D-05 achieved.  Increase integral accuracy.
 SCF Done:  E(UB3LYP) =  -500.652982301     A.U. after   15 cycles
             Convg  =    0.9481D-08             -V/T =  2.0036
 <Sx>= 0.0000 <Sy>= 0.0000 <Sz>= 0.5000 <S**2>= 0.7536 S= 0.5018
 <L.S>= 0.000000000000E+00
 Annihilation of the first spin contaminant:
 S**2 before annihilation     0.7536,   after     0.7500
 Calling FoFJK, ICntrl=      2127 FMM=F ISym2X=0 I1Cent= 0 IOpClX= 1 NMat=1 NMatS=1 NMatT=0.
 ***** Axes restored to original set *****
 -------------------------------------------------------------------
 Center     Atomic                   Forces (Hartrees/Bohr)
 Number     Number              X              Y              Z
 -------------------------------------------------------------------
      1        6          -0.000942477   -0.000194344    0.000472548
      2        1          -0.001683485    0.001709494   -0.001019517
      3        1          -0.001772925    0.000577059   -0.001834855
      4        1          -0.002763407    0.000365824   -0.000132219
      5       17           0.007953684   -0.002720991    0.002778282
      6        1          -0.000791390    0.000262957   -0.000264238
 -------------------------------------------------------------------
 Cartesian Forces:  Max     0.007953684 RMS     0.002377264

 GradGradGradGradGradGradGradGradGradGradGradGradGradGradGradGradGradGrad
 Berny optimization.
 Using GEDIIS/GDIIS optimizer.
 Internal  Forces:  Max     0.008853430 RMS     0.003120163
 Search for a local minimum.
 Step number   4 out of a maximum of   27
 All quantities printed in internal units (Hartrees-Bohrs-Radians)
 Mixed Optimization -- RFO/linear search
 Update second derivatives using D2CorX and points    3    4
 DE= -1.70D-03 DEPred=-1.43D-03 R= 1.19D+00
 SS=  1.41D+00  RLast= 1.75D-01 DXNew= 8.4853D-01 5.2568D-01
 Trust test= 1.19D+00 RLast= 1.75D-01 DXMaxT set to 5.26D-01
 The second derivative matrix:
                          R1        R2        R3        R4        R5
           R1           0.37099
           R2          -0.00114   0.37154
           R3          -0.00024  -0.00039   0.37336
           R4           0.02988   0.03053   0.03373   0.20052
           R5           0.02278   0.02343   0.02475   0.04806   0.05595
           A1          -0.00693  -0.00713  -0.00748  -0.00328   0.00396
           A2          -0.01149  -0.01185  -0.01222  -0.00567   0.01235
           A3           0.01249   0.01287   0.01333   0.00591  -0.01145
           A4          -0.01153  -0.01189  -0.01227  -0.00573   0.01244
           A5           0.01248   0.01286   0.01332   0.00589  -0.01143
           A6           0.01072   0.01107   0.01134   0.00320  -0.01268
           A7          -0.00032  -0.00032  -0.00035  -0.00083  -0.00014
           A8           0.00000   0.00000   0.00000  -0.00001   0.00000
           D1           0.00738   0.00760   0.00791  -0.01126  -0.00738
           D2           0.00327   0.00336   0.00358   0.00213  -0.00108
           D3           0.00161   0.00166   0.00176   0.00100  -0.00055
           D4          -0.00166  -0.00170  -0.00181  -0.00113   0.00053
                          A1        A2        A3        A4        A5
           A1           0.15823
           A2          -0.00397   0.15077
           A3           0.00379   0.00886   0.15193
           A4          -0.00399  -0.00928   0.00890   0.15067
           A5           0.00378   0.00884  -0.00806   0.00889   0.15195
           A6           0.00402   0.00910  -0.00872   0.00915  -0.00871
           A7           0.00005  -0.00001  -0.00002  -0.00001  -0.00002
           A8           0.00000   0.00000   0.00000   0.00000   0.00000
           D1           0.00188   0.00380  -0.00193   0.00380  -0.00192
           D2           0.00032   0.00109  -0.00050   0.00109  -0.00050
           D3           0.00016   0.00054  -0.00025   0.00054  -0.00025
           D4          -0.00016  -0.00054   0.00025  -0.00055   0.00025
                          A6        A7        A8        D1        D2
           A6           0.15102
           A7           0.00003   0.00231
           A8           0.00000   0.00000   0.00230
           D1          -0.00326  -0.00007   0.00000   0.01131
           D2          -0.00102  -0.00004   0.00000   0.00151   0.00280
           D3          -0.00051  -0.00002   0.00000   0.00075   0.00025
           D4           0.00051   0.00002   0.00000  -0.00076  -0.00025
                          D3        D4
           D3           0.00242
           D4          -0.00012   0.00243
 ITU=  1  0  1  0
 Use linear search instead of GDIIS.
     Eigenvalues ---    0.00230   0.00230   0.02985   0.05585   0.06458
     Eigenvalues ---    0.07517   0.15829   0.16000   0.19327   0.37216
     Eigenvalues ---    0.37273   0.39685
 RFO step:  Lambda=-2.14603678D-03 EMin= 2.29999990D-03
 Quartic linear search produced a step of  0.12954.
 Iteration  1 RMS(Cart)=  0.05633918 RMS(Int)=  0.00112362
 Iteration  2 RMS(Cart)=  0.00065184 RMS(Int)=  0.00095651
 Iteration  3 RMS(Cart)=  0.00000018 RMS(Int)=  0.00095651
 Variable       Old X    -DE/DX   Delta X   Delta X   Delta X     New X
                                 (Linear)    (Quad)   (Total)
    R1        2.06250  -0.00038  -0.00233  -0.01388  -0.01621   2.04629
    R2        2.06264  -0.00042  -0.00239  -0.01438  -0.01677   2.04587
    R3        2.06166  -0.00017  -0.00251  -0.01418  -0.01670   2.04496
    R4        2.14364   0.00798  -0.01455   0.00685  -0.00770   2.13594
    R5        3.38487   0.00885   0.01293   0.18634   0.19928   3.58414
    A1        1.97061  -0.00027  -0.00066  -0.01050  -0.01354   1.95707
    A2        1.97908  -0.00158  -0.00335  -0.03260  -0.03742   1.94166
    A3        1.83954   0.00116   0.00289   0.02902   0.03231   1.87185
    A4        1.97912  -0.00158  -0.00338  -0.03275  -0.03760   1.94151
    A5        1.83953   0.00116   0.00288   0.02900   0.03228   1.87180
    A6        1.83874   0.00179   0.00342   0.03284   0.03650   1.87524
    A7        3.15027  -0.00008   0.00122  -0.02544  -0.02421   3.12606
    A8        3.14177   0.00000   0.00003  -0.00021  -0.00018   3.14158
    D1        2.27740  -0.00335  -0.00780  -0.07641  -0.08193   2.19547
    D2       -2.08819  -0.00079  -0.00185  -0.01550  -0.01715  -2.10533
    D3        2.09748  -0.00039  -0.00091  -0.00766  -0.00846   2.08902
    D4       -2.09752   0.00040   0.00094   0.00785   0.00869  -2.08883
         Item               Value     Threshold  Converged?
 Maximum Force            0.008853     0.000450     NO 
 RMS     Force            0.003120     0.000300     NO 
 Maximum Displacement     0.181259     0.001800     NO 
 RMS     Displacement     0.056369     0.001200     NO 
 Predicted change in Energy=-1.244858D-03
 GradGradGradGradGradGradGradGradGradGradGradGradGradGradGradGradGradGrad

                          Input orientation:                          
 ---------------------------------------------------------------------
 Center     Atomic      Atomic             Coordinates (Angstroms)
 Number     Number       Type             X           Y           Z
 ---------------------------------------------------------------------
      1          6           0       -3.670237   -0.681588   -0.118994
      2          1           0       -4.252741   -1.565558   -0.346711
      3          1           0       -4.109533   -0.098391    0.680373
      4          1           0       -3.511477   -0.078034   -1.003054
      5         17           0       -0.943498   -1.603204    0.817683
      6          1           0       -2.656757   -1.031120    0.239120
 ---------------------------------------------------------------------
                    Distance matrix (angstroms):
                    1          2          3          4          5
     1  C    0.000000
     2  H    1.082852   0.000000
     3  H    1.082629   1.796660   0.000000
     4  H    1.082148   1.786893   1.786620   0.000000
     5  Cl   3.026855   3.508322   3.508147   3.497964   0.000000
     6  H    1.130293   1.782130   1.781922   1.783794   1.896647
                    6
     6  H    0.000000
 Stoichiometry    CH4Cl(2)
 Framework group  C1[X(CH4Cl)]
 Deg. of freedom    12
 Full point group                 C1      NOp   1
 Largest Abelian subgroup         C1      NOp   1
 Largest concise Abelian subgroup C1      NOp   1
                         Standard orientation:                         
 ---------------------------------------------------------------------
 Center     Atomic      Atomic             Coordinates (Angstroms)
 Number     Number       Type             X           Y           Z
 ---------------------------------------------------------------------
      1          6           0       -1.911868   -0.000001   -0.000865
      2          1           0       -2.237771    0.904397   -0.499282
      3          1           0       -2.237640   -0.892138   -0.520530
      4          1           0       -2.226534   -0.012406    1.034449
      5         17           0        1.114987    0.000001    0.000121
      6          1           0       -0.781625    0.000135   -0.011496
 ---------------------------------------------------------------------
 Rotational constants (GHZ):    156.4868024      4.8958753      4.8947505
 Standard basis: 6-31G(d) (6D, 7F)
 There are    42 symmetry adapted basis functions of A   symmetry.
 Integral buffers will be    131072 words long.
 Raffenetti 2 integral format.
 Two-electron integral symmetry is turned on.
    42 basis functions,    96 primitive gaussians,    42 cartesian basis functions
    14 alpha electrons       13 beta electrons
       nuclear repulsion energy        43.6612007375 Hartrees.
 NAtoms=    6 NActive=    6 NUniq=    6 SFac= 1.00D+00 NAtFMM=   60 NAOKFM=F Big=F
 One-electron integrals computed using PRISM.
 NBasis=    42 RedAO= T  NBF=    42
 NBsUse=    42 1.00D-06 NBFU=    42
 Initial guess read from the read-write file.
 B after Tr=     0.000000    0.000000    0.000000
         Rot=    1.000000    0.000000    0.000000    0.000000 Ang=   0.00 deg.
 Initial guess orbital symmetries:
 Alpha Orbitals:
       Occupied  (A) (A) (A) (A) (A) (A) (A) (A) (A) (A) (A) (A)
                 (A) (A)
       Virtual   (A) (A) (A) (A) (A) (A) (A) (A) (A) (A) (A) (A)
                 (A) (A) (A) (A) (A) (A) (A) (A) (A) (A) (A) (A)
                 (A) (A) (A) (A)
 Beta  Orbitals:
       Occupied  (A) (A) (A) (A) (A) (A) (A) (A) (A) (A) (A) (A)
                 (A)
       Virtual   (A) (A) (A) (A) (A) (A) (A) (A) (A) (A) (A) (A)
                 (A) (A) (A) (A) (A) (A) (A) (A) (A) (A) (A) (A)
                 (A) (A) (A) (A) (A)
 Initial guess <Sx>= 0.0000 <Sy>= 0.0000 <Sz>= 0.5000 <S**2>= 0.7538 S= 0.5019
 Harris functional with IExCor=  402 diagonalized for initial guess.
 ExpMin= 1.43D-01 ExpMax= 2.52D+04 ExpMxC= 3.78D+03 IAcc=1 IRadAn=         1 AccDes= 0.00D+00
 HarFok:  IExCor=  402 AccDes= 0.00D+00 IRadAn=         1 IDoV= 1
 ScaDFX=  1.000000  1.000000  1.000000  1.000000
 FoFCou: FMM=F IPFlag=           0 FMFlag=      100000 FMFlg1=           0
         NFxFlg=           0 DoJE=T BraDBF=F KetDBF=T FulRan=T
         Omega=  0.000000  0.000000  1.000000  0.000000  0.000000 ICntrl=     500 IOpCl=  0
         NMat0=    1 NMatS0=    1 NMatT0=    0 NMatD0=    1 NMtDS0=    0 NMtDT0=    0
         I1Cent=           4 NGrid=           0.
 Petite list used in FoFCou.
 Requested convergence on RMS density matrix=1.00D-08 within 128 cycles.
 Requested convergence on MAX density matrix=1.00D-06.
 Requested convergence on             energy=1.00D-06.
 No special actions if energy rises.
 Keep R1 and R2 ints in memory in canonical form, NReq=1749031.
 Integral accuracy reduced to 1.0D-05 until final iterations.
 Initial convergence to 1.0D-05 achieved.  Increase integral accuracy.
 SCF Done:  E(UB3LYP) =  -500.654345657     A.U. after   22 cycles
             Convg  =    0.1106D-08             -V/T =  2.0036
 <Sx>= 0.0000 <Sy>= 0.0000 <Sz>= 0.5000 <S**2>= 0.7532 S= 0.5016
 <L.S>= 0.000000000000E+00
 Annihilation of the first spin contaminant:
 S**2 before annihilation     0.7532,   after     0.7500
 Calling FoFJK, ICntrl=      2127 FMM=F ISym2X=0 I1Cent= 0 IOpClX= 1 NMat=1 NMatS=1 NMatT=0.
 ***** Axes restored to original set *****
 -------------------------------------------------------------------
 Center     Atomic                   Forces (Hartrees/Bohr)
 Number     Number              X              Y              Z
 -------------------------------------------------------------------
      1        6           0.003461658   -0.000959500    0.000691783
      2        1          -0.003337886   -0.005061514   -0.000413665
      3        1          -0.002669601    0.002586438    0.005008044
      4        1           0.001785501    0.003590274   -0.005393552
      5       17           0.004249562   -0.001426776    0.001446196
      6        1          -0.003489234    0.001271078   -0.001338806
 -------------------------------------------------------------------
 Cartesian Forces:  Max     0.005393552 RMS     0.003092536

 GradGradGradGradGradGradGradGradGradGradGradGradGradGradGradGradGradGrad
 Berny optimization.
 Using GEDIIS/GDIIS optimizer.
 Internal  Forces:  Max     0.006671075 RMS     0.002910062
 Search for a local minimum.
 Step number   5 out of a maximum of   27
 All quantities printed in internal units (Hartrees-Bohrs-Radians)
 Mixed Optimization -- RFO/linear search
 Update second derivatives using D2CorX and points    3    4    5
 DE= -1.36D-03 DEPred=-1.24D-03 R= 1.10D+00
 SS=  1.41D+00  RLast= 2.34D-01 DXNew= 8.8409D-01 7.0196D-01
 Trust test= 1.10D+00 RLast= 2.34D-01 DXMaxT set to 7.02D-01
 The second derivative matrix:
                          R1        R2        R3        R4        R5
           R1           0.41648
           R2           0.04568   0.41972
           R3           0.04936   0.05065   0.42741
           R4           0.03089   0.03159   0.03472   0.19640
           R5           0.01902   0.01962   0.02021   0.04411   0.03889
           A1          -0.00997  -0.01026  -0.01076  -0.00313   0.00509
           A2          -0.00109  -0.00116  -0.00082  -0.00470   0.01453
           A3           0.00718   0.00742   0.00751   0.00541  -0.01232
           A4          -0.00105  -0.00112  -0.00077  -0.00475   0.01461
           A5           0.00721   0.00745   0.00754   0.00539  -0.01231
           A6          -0.00281  -0.00285  -0.00348   0.00225  -0.01402
           A7           0.00014   0.00015   0.00015  -0.00080  -0.00023
           A8           0.00000   0.00000   0.00000  -0.00001   0.00000
           D1           0.02318   0.02383   0.02529  -0.00936  -0.00200
           D2           0.01072   0.01102   0.01172   0.00263  -0.00027
           D3           0.00528   0.00543   0.00578   0.00125  -0.00014
           D4          -0.00544  -0.00559  -0.00595  -0.00138   0.00013
                          A1        A2        A3        A4        A5
           A1           0.15838
           A2          -0.00482   0.15261
           A3           0.00421   0.00788   0.15244
           A4          -0.00485  -0.00742   0.00791   0.15255
           A5           0.00420   0.00787  -0.00755   0.00791   0.15246
           A6           0.00505   0.00644  -0.00734   0.00646  -0.00733
           A7           0.00002   0.00010  -0.00008   0.00010  -0.00008
           A8           0.00000   0.00000   0.00000   0.00000   0.00000
           D1           0.00048   0.00624  -0.00326   0.00627  -0.00324
           D2          -0.00025   0.00254  -0.00126   0.00255  -0.00125
           D3          -0.00012   0.00125  -0.00062   0.00126  -0.00062
           D4           0.00013  -0.00128   0.00064  -0.00129   0.00063
                          A6        A7        A8        D1        D2
           A6           0.15470
           A7          -0.00011   0.00231
           A8           0.00000   0.00000   0.00230
           D1          -0.00701   0.00011   0.00000   0.01422
           D2          -0.00303   0.00003   0.00000   0.00355   0.00390
           D3          -0.00150   0.00002   0.00000   0.00175   0.00079
           D4           0.00154  -0.00002   0.00000  -0.00180  -0.00081
                          D3        D4
           D3           0.00269
           D4          -0.00040   0.00271
 ITU=  1  1  0  1  0
 Use linear search instead of GDIIS.
     Eigenvalues ---    0.00230   0.00231   0.01859   0.05444   0.06122
     Eigenvalues ---    0.08558   0.16000   0.16052   0.19710   0.37220
     Eigenvalues ---    0.37277   0.53343
 RFO step:  Lambda=-8.55250778D-04 EMin= 2.30000009D-03
 Quartic linear search produced a step of  0.31348.
 Iteration  1 RMS(Cart)=  0.03862522 RMS(Int)=  0.00046650
 Iteration  2 RMS(Cart)=  0.00017655 RMS(Int)=  0.00043209
 Iteration  3 RMS(Cart)=  0.00000007 RMS(Int)=  0.00043209
 Variable       Old X    -DE/DX   Delta X   Delta X   Delta X     New X
                                 (Linear)    (Quad)   (Total)
    R1        2.04629   0.00601  -0.00508   0.01361   0.00853   2.05482
    R2        2.04587   0.00617  -0.00526   0.01392   0.00867   2.05454
    R3        2.04496   0.00667  -0.00523   0.01522   0.00999   2.05496
    R4        2.13594   0.00076  -0.00241  -0.04367  -0.04608   2.08987
    R5        3.58414   0.00471   0.06247   0.12437   0.18684   3.77099
    A1        1.95707  -0.00046  -0.00424  -0.00869  -0.01399   1.94309
    A2        1.94166   0.00064  -0.01173  -0.00152  -0.01392   1.92774
    A3        1.87185  -0.00004   0.01013   0.00454   0.01483   1.88667
    A4        1.94151   0.00065  -0.01179  -0.00143  -0.01388   1.92763
    A5        1.87180  -0.00004   0.01012   0.00461   0.01489   1.88669
    A6        1.87524  -0.00083   0.01144   0.00356   0.01505   1.89030
    A7        3.12606   0.00005  -0.00759   0.01787   0.01028   3.13634
    A8        3.14158   0.00000  -0.00006  -0.00003  -0.00009   3.14149
    D1        2.19547   0.00037  -0.02568  -0.01366  -0.03830   2.15717
    D2       -2.10533   0.00059  -0.00538   0.00527   0.00002  -2.10531
    D3        2.08902   0.00029  -0.00265   0.00256  -0.00003   2.08900
    D4       -2.08883  -0.00030   0.00272  -0.00271  -0.00005  -2.08887
         Item               Value     Threshold  Converged?
 Maximum Force            0.006671     0.000450     NO 
 RMS     Force            0.002910     0.000300     NO 
 Maximum Displacement     0.123094     0.001800     NO 
 RMS     Displacement     0.038639     0.001200     NO 
 Predicted change in Energy=-4.773566D-04
 GradGradGradGradGradGradGradGradGradGradGradGradGradGradGradGradGradGrad

                          Input orientation:                          
 ---------------------------------------------------------------------
 Center     Atomic      Atomic             Coordinates (Angstroms)
 Number     Number       Type             X           Y           Z
 ---------------------------------------------------------------------
      1          6           0       -3.669886   -0.681297   -0.119462
      2          1           0       -4.265793   -1.561000   -0.350502
      3          1           0       -4.122712   -0.094650    0.676045
      4          1           0       -3.531405   -0.071748   -1.009287
      5         17           0       -0.878359   -1.628343    0.844532
      6          1           0       -2.676088   -1.020858    0.227091
 ---------------------------------------------------------------------
                    Distance matrix (angstroms):
                    1          2          3          4          5
     1  C    0.000000
     2  H    1.087364   0.000000
     3  H    1.087216   1.795676   0.000000
     4  H    1.087436   1.786392   1.786201   0.000000
     5  Cl   3.101420   3.592680   3.592552   3.591418   0.000000
     6  H    1.105909   1.775535   1.775427   1.777922   1.995520
                    6
     6  H    0.000000
 Stoichiometry    CH4Cl(2)
 Framework group  C1[X(CH4Cl)]
 Deg. of freedom    12
 Full point group                 C1      NOp   1
 Largest Abelian subgroup         C1      NOp   1
 Largest concise Abelian subgroup C1      NOp   1
                         Standard orientation:                         
 ---------------------------------------------------------------------
 Center     Atomic      Atomic             Coordinates (Angstroms)
 Number     Number       Type             X           Y           Z
 ---------------------------------------------------------------------
      1          6           0       -1.956035    0.000001   -0.001065
      2          1           0       -2.295393    0.902338   -0.504042
      3          1           0       -2.295292   -0.893270   -0.519727
      4          1           0       -2.294499   -0.009145    1.032316
      5         17           0        1.145384    0.000000    0.000130
      6          1           0       -0.850131    0.000075   -0.004374
 ---------------------------------------------------------------------
 Rotational constants (GHZ):    156.6015215      4.6565030      4.6555369
 Standard basis: 6-31G(d) (6D, 7F)
 There are    42 symmetry adapted basis functions of A   symmetry.
 Integral buffers will be    131072 words long.
 Raffenetti 2 integral format.
 Two-electron integral symmetry is turned on.
    42 basis functions,    96 primitive gaussians,    42 cartesian basis functions
    14 alpha electrons       13 beta electrons
       nuclear repulsion energy        42.8366991154 Hartrees.
 NAtoms=    6 NActive=    6 NUniq=    6 SFac= 1.00D+00 NAtFMM=   60 NAOKFM=F Big=F
 One-electron integrals computed using PRISM.
 NBasis=    42 RedAO= T  NBF=    42
 NBsUse=    42 1.00D-06 NBFU=    42
 Initial guess read from the read-write file.
 B after Tr=     0.000000    0.000000    0.000000
         Rot=    1.000000    0.000000    0.000000    0.000000 Ang=   0.00 deg.
 Initial guess orbital symmetries:
 Alpha Orbitals:
       Occupied  (A) (A) (A) (A) (A) (A) (A) (A) (A) (A) (A) (A)
                 (A) (A)
       Virtual   (A) (A) (A) (A) (A) (A) (A) (A) (A) (A) (A) (A)
                 (A) (A) (A) (A) (A) (A) (A) (A) (A) (A) (A) (A)
                 (A) (A) (A) (A)
 Beta  Orbitals:
       Occupied  (A) (A) (A) (A) (A) (A) (A) (A) (A) (A) (A) (A)
                 (A)
       Virtual   (A) (A) (A) (A) (A) (A) (A) (A) (A) (A) (A) (A)
                 (A) (A) (A) (A) (A) (A) (A) (A) (A) (A) (A) (A)
                 (A) (A) (A) (A) (A)
 Initial guess <Sx>= 0.0000 <Sy>= 0.0000 <Sz>= 0.5000 <S**2>= 0.7532 S= 0.5016
 Harris functional with IExCor=  402 diagonalized for initial guess.
 ExpMin= 1.43D-01 ExpMax= 2.52D+04 ExpMxC= 3.78D+03 IAcc=1 IRadAn=         1 AccDes= 0.00D+00
 HarFok:  IExCor=  402 AccDes= 0.00D+00 IRadAn=         1 IDoV= 1
 ScaDFX=  1.000000  1.000000  1.000000  1.000000
 FoFCou: FMM=F IPFlag=           0 FMFlag=      100000 FMFlg1=           0
         NFxFlg=           0 DoJE=T BraDBF=F KetDBF=T FulRan=T
         Omega=  0.000000  0.000000  1.000000  0.000000  0.000000 ICntrl=     500 IOpCl=  0
         NMat0=    1 NMatS0=    1 NMatT0=    0 NMatD0=    1 NMtDS0=    0 NMtDT0=    0
         I1Cent=           4 NGrid=           0.
 Petite list used in FoFCou.
 Requested convergence on RMS density matrix=1.00D-08 within 128 cycles.
 Requested convergence on MAX density matrix=1.00D-06.
 Requested convergence on             energy=1.00D-06.
 No special actions if energy rises.
 Keep R1 and R2 ints in memory in canonical form, NReq=1749198.
 Integral accuracy reduced to 1.0D-05 until final iterations.
 Initial convergence to 1.0D-05 achieved.  Increase integral accuracy.
 SCF Done:  E(UB3LYP) =  -500.654943533     A.U. after   15 cycles
             Convg  =    0.7906D-08             -V/T =  2.0036
 <Sx>= 0.0000 <Sy>= 0.0000 <Sz>= 0.5000 <S**2>= 0.7527 S= 0.5014
 <L.S>= 0.000000000000E+00
 Annihilation of the first spin contaminant:
 S**2 before annihilation     0.7527,   after     0.7500
 Calling FoFJK, ICntrl=      2127 FMM=F ISym2X=0 I1Cent= 0 IOpClX= 1 NMat=1 NMatS=1 NMatT=0.
 ***** Axes restored to original set *****
 -------------------------------------------------------------------
 Center     Atomic                   Forces (Hartrees/Bohr)
[...]
           D1          -0.00112  -0.00020   0.00000   0.02338
           D2          -0.00127   0.00005   0.00000   0.00488   0.00413
           D3          -0.00062   0.00002   0.00000   0.00243   0.00090
           D4           0.00065  -0.00002   0.00000  -0.00246  -0.00092
                          D3        D4
           D3           0.00275
           D4          -0.00046   0.00277
 ITU=  0  0  0  0  0  0  0  0  0  0  0  0  0  0 -1  1  1  1
 Use linear search instead of GDIIS.
 Skip linear search -- no minimum in search direction.
 Steepest descent instead of Quadratic search.
 Steepest descent step scaled to max of 0.05000.
 Iteration  1 RMS(Cart)=  0.01100102 RMS(Int)=  0.00000052
 Iteration  2 RMS(Cart)=  0.00000107 RMS(Int)=  0.00000001
 Iteration  3 RMS(Cart)=  0.00000000 RMS(Int)=  0.00000001
 Variable       Old X    -DE/DX   Delta X   Delta X   Delta X     New X
                                 (Linear)    (Quad)   (Total)
    R1        2.06700   0.00001   0.00000   0.00008   0.00008   2.06708
    R2        2.06694  -0.00001   0.00000  -0.00005  -0.00005   2.06689
    R3        2.06691  -0.00002   0.00000  -0.00016  -0.00016   2.06675
    R4        2.06836  -0.00002   0.00000  -0.00019  -0.00019   2.06817
    R5        4.81504   0.00527   0.00000   0.05000   0.05000   4.86504
    A1        1.90679   0.00001   0.00000   0.00008   0.00008   1.90687
    A2        1.90736   0.00000   0.00000   0.00002   0.00002   1.90738
    A3        1.91398  -0.00001   0.00000  -0.00010  -0.00010   1.91387
    A4        1.90774   0.00004   0.00000   0.00034   0.00034   1.90808
    A5        1.91388  -0.00002   0.00000  -0.00019  -0.00019   1.91370
    A6        1.91401  -0.00002   0.00000  -0.00014  -0.00014   1.91387
    A7        3.15118  -0.00005   0.00000  -0.00043  -0.00043   3.15075
    A8        3.14162   0.00000   0.00000   0.00002   0.00002   3.14164
    D1        2.08596   0.00003   0.00000   0.00031   0.00031   2.08628
    D2       -2.09374   0.00001   0.00000   0.00008   0.00008  -2.09365
    D3        2.09452  -0.00001   0.00000  -0.00013  -0.00013   2.09439
    D4       -2.09493  -0.00002   0.00000  -0.00021  -0.00021  -2.09514
         Item               Value     Threshold  Converged?
 Maximum Force            0.005269     0.000450     NO 
 RMS     Force            0.001278     0.000300     NO 
 Maximum Displacement     0.037361     0.001800     NO 
 RMS     Displacement     0.011001     0.001200     NO 
 Predicted change in Energy=-2.670780D-03
 GradGradGradGradGradGradGradGradGradGradGradGradGradGradGradGradGradGrad

                          Input orientation:                          
 ---------------------------------------------------------------------
 Center     Atomic      Atomic             Coordinates (Angstroms)
 Number     Number       Type             X           Y           Z
 ---------------------------------------------------------------------
      1          6           0       -3.738818   -0.655649   -0.146370
      2          1           0       -4.360752   -1.525164   -0.377999
      3          1           0       -4.218635   -0.068717    0.642033
      4          1           0       -3.632304   -0.038574   -1.043033
      5         17           0       -0.441519   -1.781701    1.002710
      6          1           0       -2.752215   -0.988091    0.191077
 ---------------------------------------------------------------------
                    Distance matrix (angstroms):
                    1          2          3          4          5
     1  C    0.000000
     2  H    1.093851   0.000000
     3  H    1.093751   1.783789   0.000000
     4  H    1.093678   1.784056   1.784416   0.000000
     5  Cl   3.668864   4.163238   4.163052   4.171890   0.000000
     6  H    1.094429   1.788766   1.788574   1.788621   2.574467
                    6
     6  H    0.000000
 Stoichiometry    CH4Cl(2)
 Framework group  C1[X(CH4Cl)]
 Deg. of freedom    12
 Full point group                 C1      NOp   1
 Largest Abelian subgroup         C1      NOp   1
 Largest concise Abelian subgroup C1      NOp   1
                         Standard orientation:                         
 ---------------------------------------------------------------------
 Center     Atomic      Atomic             Coordinates (Angstroms)
 Number     Number       Type             X           Y           Z
 ---------------------------------------------------------------------
      1          6           0       -2.309686    0.000076    0.000077
      2          1           0       -2.674334   -0.228792   -1.005489
      3          1           0       -2.674126   -0.759580    0.697499
      4          1           0       -2.684157    0.981214    0.305483
      5         17           0        1.359177   -0.000003   -0.000007
      6          1           0       -1.215280    0.006758    0.002163
 ---------------------------------------------------------------------
 Rotational constants (GHZ):    157.5431869      3.3418989      3.3418700
 Standard basis: 6-31G(d) (6D, 7F)
 There are    42 symmetry adapted basis functions of A   symmetry.
 Integral buffers will be    131072 words long.
 Raffenetti 2 integral format.
 Two-electron integral symmetry is turned on.
    42 basis functions,    96 primitive gaussians,    42 cartesian basis functions
    14 alpha electrons       13 beta electrons
       nuclear repulsion energy        38.0714971569 Hartrees.
 NAtoms=    6 NActive=    6 NUniq=    6 SFac= 1.00D+00 NAtFMM=   60 NAOKFM=F Big=F
 One-electron integrals computed using PRISM.
 NBasis=    42 RedAO= T  NBF=    42
 NBsUse=    42 1.00D-06 NBFU=    42
 Initial guess read from the read-write file.
 B after Tr=     0.000000    0.000000    0.000000
         Rot=    1.000000    0.000000    0.000000    0.000000 Ang=   0.00 deg.
 Initial guess orbital symmetries:
 Alpha Orbitals:
       Occupied  (A) (A) (A) (A) (A) (A) (A) (A) (A) (A) (A) (A)
                 (A) (A)
       Virtual   (A) (A) (A) (A) (A) (A) (A) (A) (A) (A) (A) (A)
                 (A) (A) (A) (A) (A) (A) (A) (A) (A) (A) (A) (A)
                 (A) (A) (A) (A)
 Beta  Orbitals:
       Occupied  (A) (A) (A) (A) (A) (A) (A) (A) (A) (A) (A) (A)
                 (A)
       Virtual   (A) (A) (A) (A) (A) (A) (A) (A) (A) (A) (A) (A)
                 (A) (A) (A) (A) (A) (A) (A) (A) (A) (A) (A) (A)
                 (A) (A) (A) (A) (A)
 Initial guess <Sx>= 0.0000 <Sy>= 0.0000 <Sz>= 0.5000 <S**2>= 0.7518 S= 0.5009
 Harris functional with IExCor=  402 diagonalized for initial guess.
 ExpMin= 1.43D-01 ExpMax= 2.52D+04 ExpMxC= 3.78D+03 IAcc=1 IRadAn=         1 AccDes= 0.00D+00
 HarFok:  IExCor=  402 AccDes= 0.00D+00 IRadAn=         1 IDoV= 1
 ScaDFX=  1.000000  1.000000  1.000000  1.000000
 FoFCou: FMM=F IPFlag=           0 FMFlag=      100000 FMFlg1=           0
         NFxFlg=           0 DoJE=T BraDBF=F KetDBF=T FulRan=T
         Omega=  0.000000  0.000000  1.000000  0.000000  0.000000 ICntrl=     500 IOpCl=  0
         NMat0=    1 NMatS0=    1 NMatT0=    0 NMatD0=    1 NMtDS0=    0 NMtDT0=    0
         I1Cent=           4 NGrid=           0.
 Petite list used in FoFCou.
 DSYEVD returned Info=          85 IAlg= 4 N=    42 NDim=    42 NE2=      798821 trying DSYEV.
 Requested convergence on RMS density matrix=1.00D-08 within 128 cycles.
 Requested convergence on MAX density matrix=1.00D-06.
 Requested convergence on             energy=1.00D-06.
 No special actions if energy rises.
 Keep R1 and R2 ints in memory in canonical form, NReq=1749344.
 Integral accuracy reduced to 1.0D-05 until final iterations.
 Initial convergence to 1.0D-05 achieved.  Increase integral accuracy.
 SCF Done:  E(UB3LYP) =  -500.652690094     A.U. after   11 cycles
             Convg  =    0.7118D-08             -V/T =  2.0037
 <Sx>= 0.0000 <Sy>= 0.0000 <Sz>= 0.5000 <S**2>= 0.7518 S= 0.5009
 <L.S>= 0.000000000000E+00
 Annihilation of the first spin contaminant:
 S**2 before annihilation     0.7518,   after     0.7500
 Calling FoFJK, ICntrl=      2127 FMM=F ISym2X=0 I1Cent= 0 IOpClX= 1 NMat=1 NMatS=1 NMatT=0.
 ***** Axes restored to original set *****
 -------------------------------------------------------------------
 Center     Atomic                   Forces (Hartrees/Bohr)
 Number     Number              X              Y              Z
 -------------------------------------------------------------------
      1        6          -0.000066042    0.000026312    0.000022058
      2        1           0.000055850    0.000003914   -0.000003379
      3        1           0.000034505   -0.000010223    0.000011993
      4        1           0.000016435   -0.000013563   -0.000031583
      5       17           0.004257160   -0.001457192    0.001484021
      6        1          -0.004297907    0.001450751   -0.001483110
 -------------------------------------------------------------------
 Cartesian Forces:  Max     0.004297907 RMS     0.001585297

 GradGradGradGradGradGradGradGradGradGradGradGradGradGradGradGradGradGrad
 Berny optimization.
 Using GEDIIS/GDIIS optimizer.
 Internal  Forces:  Max     0.004738051 RMS     0.001149358
 Search for a local minimum.
 Step number  23 out of a maximum of   27
 All quantities printed in internal units (Hartrees-Bohrs-Radians)
 Mixed Optimization -- RFO/linear search
 Update second derivatives using D2CorX and points    6    8    9   10   11
                                                     12   13   14   15   16
                                                     23    7
 The second derivative matrix:
                          R1        R2        R3        R4        R5
           R1           0.50529
           R2           0.13722   0.51407
           R3           0.16053   0.16519   0.56467
           R4           0.25811   0.26622   0.29005   1.03559
           R5           0.00330   0.00347   0.00405   0.03006  -0.00226
           A1          -0.01750  -0.01825  -0.01892  -0.05281   0.00175
           A2           0.02008   0.02039   0.02715   0.04260   0.00109
           A3           0.02407   0.02503   0.02488   0.03414  -0.00066
           A4           0.01890   0.01917   0.02582   0.04110   0.00092
           A5           0.02437   0.02535   0.02522   0.03475  -0.00062
           A6          -0.02292  -0.02333  -0.02953  -0.04686  -0.00211
           A7           0.00194   0.00199   0.00225   0.00041  -0.00002
           A8          -0.00005  -0.00005  -0.00005  -0.00006  -0.00001
           D1          -0.01927  -0.01974  -0.02468  -0.03110   0.00210
           D2           0.01498   0.01545   0.01663   0.02388   0.00127
           D3           0.00744   0.00768   0.00826   0.01195   0.00065
           D4          -0.00753  -0.00777  -0.00837  -0.01193  -0.00062
                          A1        A2        A3        A4        A5
           A1           0.15658
           A2          -0.01970   0.12879
           A3           0.00850   0.03176   0.14012
           A4          -0.01948  -0.03141   0.03168   0.12839
           A5           0.00851   0.03193  -0.01992   0.03185   0.14005
           A6           0.01945   0.02964  -0.02994   0.02981  -0.03012
           A7          -0.00010   0.00040   0.00006   0.00039   0.00007
           A8           0.00001   0.00000  -0.00001   0.00000  -0.00001
           D1           0.00375  -0.00400  -0.00321  -0.00387  -0.00326
           D2          -0.00243   0.00191   0.00104   0.00186   0.00108
           D3          -0.00122   0.00095   0.00053   0.00093   0.00055
           D4           0.00121  -0.00095  -0.00051  -0.00093  -0.00053
                          A6        A7        A8        D1        D2
           A6           0.13225
           A7          -0.00039   0.00234
           A8           0.00000   0.00000   0.00230
           D1           0.00135  -0.00036   0.00001   0.02214
           D2          -0.00272   0.00011   0.00000   0.00332   0.00475
           D3          -0.00135   0.00006   0.00000   0.00164   0.00122
           D4           0.00137  -0.00006   0.00000  -0.00168  -0.00124
                          D3        D4
           D3           0.00290
           D4          -0.00061   0.00292
 ITU=  0  0  0  0  0  0  0  0  0  0  0  0  0  0  0 -1  1  1
 Use linear search instead of GDIIS.
 Skip linear search -- no minimum in search direction.
 Steepest descent instead of Quadratic search.
 Steepest descent step scaled to max of 0.05000.
 Iteration  1 RMS(Cart)=  0.01096366 RMS(Int)=  0.00000044
 Iteration  2 RMS(Cart)=  0.00000086 RMS(Int)=  0.00000002
 Variable       Old X    -DE/DX   Delta X   Delta X   Delta X     New X
                                 (Linear)    (Quad)   (Total)
    R1        2.06708  -0.00003   0.00000  -0.00037  -0.00037   2.06671
    R2        2.06689  -0.00001   0.00000  -0.00013  -0.00013   2.06676
    R3        2.06675   0.00002   0.00000   0.00022   0.00022   2.06697
    R4        2.06817  -0.00003   0.00000  -0.00036  -0.00036   2.06781
    R5        4.86504   0.00474   0.00000   0.05000   0.05000   4.91504
    A1        1.90687   0.00002   0.00000   0.00022   0.00022   1.90709
    A2        1.90738   0.00000   0.00000   0.00003   0.00003   1.90741
    A3        1.91387  -0.00003   0.00000  -0.00031  -0.00031   1.91356
    A4        1.90808   0.00002   0.00000   0.00023   0.00023   1.90832
    A5        1.91370  -0.00001   0.00000  -0.00015  -0.00015   1.91355
    A6        1.91387   0.00000   0.00000  -0.00002  -0.00002   1.91385
    A7        3.15075  -0.00003   0.00000  -0.00034  -0.00034   3.15041
    A8        3.14164   0.00001   0.00000   0.00008   0.00008   3.14173
    D1        2.08628   0.00004   0.00000   0.00042   0.00042   2.08670
    D2       -2.09365   0.00000   0.00000   0.00002   0.00002  -2.09364
    D3        2.09439  -0.00002   0.00000  -0.00017  -0.00017   2.09422
    D4       -2.09514  -0.00002   0.00000  -0.00018  -0.00018  -2.09533
         Item               Value     Threshold  Converged?
 Maximum Force            0.004738     0.000450     NO 
 RMS     Force            0.001149     0.000300     NO 
 Maximum Displacement     0.037141     0.001800     NO 
 RMS     Displacement     0.010964     0.001200     NO 
 Predicted change in Energy=-2.447568D-03
 GradGradGradGradGradGradGradGradGradGradGradGradGradGradGradGradGradGrad

                          Input orientation:                          
 ---------------------------------------------------------------------
 Center     Atomic      Atomic             Coordinates (Angstroms)
 Number     Number       Type             X           Y           Z
 ---------------------------------------------------------------------
      1          6           0       -3.742822   -0.654278   -0.147701
      2          1           0       -4.364425   -1.523785   -0.379333
      3          1           0       -4.222564   -0.067399    0.640691
      4          1           0       -3.636088   -0.037265   -1.044522
      5         17           0       -0.421865   -1.788412    1.009441
      6          1           0       -2.756478   -0.986757    0.189841
 ---------------------------------------------------------------------
                    Distance matrix (angstroms):
                    1          2          3          4          5
     1  C    0.000000
     2  H    1.093658   0.000000
     3  H    1.093682   1.783713   0.000000
     4  H    1.093793   1.784011   1.784602   0.000000
     5  Cl   3.695132   4.188377   4.188458   4.197203   0.000000
     6  H    1.094236   1.788254   1.788266   1.788547   2.600926
                    6
     6  H    0.000000
 Stoichiometry    CH4Cl(2)
 Framework group  C1[X(CH4Cl)]
 Deg. of freedom    12
 Full point group                 C1      NOp   1
 Largest Abelian subgroup         C1      NOp   1
 Largest concise Abelian subgroup C1      NOp   1
                         Standard orientation:                         
 ---------------------------------------------------------------------
 Center     Atomic      Atomic             Coordinates (Angstroms)
 Number     Number       Type             X           Y           Z
 ---------------------------------------------------------------------
      1          6           0       -2.326239    0.000046    0.000081
      2          1           0       -2.690583   -0.174637   -1.016199
      3          1           0       -2.690637   -0.795742    0.655883
      4          1           0       -2.700513    0.963695    0.357408
      5         17           0        1.368893    0.000002   -0.000003
      6          1           0       -1.232023    0.006377    0.002471
 ---------------------------------------------------------------------
 Rotational constants (GHZ):    157.5395310      3.2956158      3.2955755
 Standard basis: 6-31G(d) (6D, 7F)
 There are    42 symmetry adapted basis functions of A   symmetry.
 Integral buffers will be    131072 words long.
 Raffenetti 2 integral format.
 Two-electron integral symmetry is turned on.
    42 basis functions,    96 primitive gaussians,    42 cartesian basis functions
    14 alpha electrons       13 beta electrons
       nuclear repulsion energy        37.8933201283 Hartrees.
 NAtoms=    6 NActive=    6 NUniq=    6 SFac= 1.00D+00 NAtFMM=   60 NAOKFM=F Big=F
 One-electron integrals computed using PRISM.
 NBasis=    42 RedAO= T  NBF=    42
 NBsUse=    42 1.00D-06 NBFU=    42
 Initial guess read from the read-write file.
 B after Tr=     0.000000    0.000000    0.000000
         Rot=    1.000000    0.000000    0.000000    0.000000 Ang=   0.00 deg.
 Initial guess orbital symmetries:
 Alpha Orbitals:
       Occupied  (A) (A) (A) (A) (A) (A) (A) (A) (A) (A) (A) (A)
                 (A) (A)
       Virtual   (A) (A) (A) (A) (A) (A) (A) (A) (A) (A) (A) (A)
                 (A) (A) (A) (A) (A) (A) (A) (A) (A) (A) (A) (A)
                 (A) (A) (A) (A)
 Beta  Orbitals:
       Occupied  (A) (A) (A) (A) (A) (A) (A) (A) (A) (A) (A) (A)
                 (A)
       Virtual   (A) (A) (A) (A) (A) (A) (A) (A) (A) (A) (A) (A)
                 (A) (A) (A) (A) (A) (A) (A) (A) (A) (A) (A) (A)
                 (A) (A) (A) (A) (A)
 Initial guess <Sx>= 0.0000 <Sy>= 0.0000 <Sz>= 0.5000 <S**2>= 0.7518 S= 0.5009
 Harris functional with IExCor=  402 diagonalized for initial guess.
 ExpMin= 1.43D-01 ExpMax= 2.52D+04 ExpMxC= 3.78D+03 IAcc=1 IRadAn=         1 AccDes= 0.00D+00
 HarFok:  IExCor=  402 AccDes= 0.00D+00 IRadAn=         1 IDoV= 1
 ScaDFX=  1.000000  1.000000  1.000000  1.000000
 FoFCou: FMM=F IPFlag=           0 FMFlag=      100000 FMFlg1=           0
         NFxFlg=           0 DoJE=T BraDBF=F KetDBF=T FulRan=T
         Omega=  0.000000  0.000000  1.000000  0.000000  0.000000 ICntrl=     500 IOpCl=  0
         NMat0=    1 NMatS0=    1 NMatT0=    0 NMatD0=    1 NMtDS0=    0 NMtDT0=    0
         I1Cent=           4 NGrid=           0.
 Petite list used in FoFCou.
 DSYEVD returned Info=          85 IAlg= 4 N=    42 NDim=    42 NE2=      798821 trying DSYEV.
 Requested convergence on RMS density matrix=1.00D-08 within 128 cycles.
 Requested convergence on MAX density matrix=1.00D-06.
 Requested convergence on             energy=1.00D-06.
 No special actions if energy rises.
 Keep R1 and R2 ints in memory in canonical form, NReq=1749344.
 Integral accuracy reduced to 1.0D-05 until final iterations.
 Initial convergence to 1.0D-05 achieved.  Increase integral accuracy.
 >>>>>>>>>> Convergence criterion not met.
 SCF Done:  E(UB3LYP) =  -500.652882540     A.U. after  129 cycles
             Convg  =    0.8154D-05             -V/T =  2.0037
 <Sx>= 0.0000 <Sy>= 0.0000 <Sz>= 0.5000 <S**2>= 0.7521 S= 0.5010
 <L.S>= 0.000000000000E+00
 Annihilation of the first spin contaminant:
 S**2 before annihilation     0.7521,   after     0.7500
 Convergence failure -- run terminated.
 Error termination via Lnk1e in /home/student/g09/l502.exe at Tue Feb 23 15:26:19 2021.
 Job cpu time:  0 days  0 hours  2 minutes 40.7 seconds.
 File lengths (MBytes):  RWF=      5 Int=      0 D2E=      0 Chk=      1 Scr=      1
